
                                 *****************
                                 * O   R   C   A *
                                 *****************

                                            #,                                       
                                            ###                                      
                                            ####                                     
                                            #####                                    
                                            ######                                   
                                           ########,                                 
                                     ,,################,,,,,                         
                               ,,#################################,,                 
                          ,,##########################################,,             
                       ,#########################################, ''#####,          
                    ,#############################################,,   '####,        
                  ,##################################################,,,,####,       
                ,###########''''           ''''###############################       
              ,#####''   ,,,,##########,,,,          '''####'''          '####       
            ,##' ,,,,###########################,,,                        '##       
           ' ,,###''''                  '''############,,,                           
         ,,##''                                '''############,,,,        ,,,,,,###''
      ,#''                                            '''#######################'''  
     '                                                          ''''####''''         
             ,#######,   #######,   ,#######,      ##                                
            ,#'     '#,  ##    ##  ,#'     '#,    #''#        ,####,   ,####,        
            ##       ##  ##   ,#'  ##            #'  '#       #'       #'  '#        
            ##       ##  #######   ##           ,######,      #####,   #    #        
            '#,     ,#'  ##    ##  '#,     ,#' ,#      #,     #,   #   #,  ,#        
             '#######'   ##     ##  '#######'  #'      '#     '####' # '####'        



                #########################################################
                #                        -***-                          #
                #          Department of theory and spectroscopy        #
                #                                                       #
                #                      Frank Neese                      #
                #                                                       #
                #     Directorship, Architecture, Infrastructure        #
                #                    SHARK, DRIVERS                     #
                #        Core code/Algorithms in most modules           #
                #                                                       #
                #        Max Planck Institute fuer Kohlenforschung      #
                #                Kaiser Wilhelm Platz 1                 #
                #                 D-45470 Muelheim/Ruhr                 #
                #                      Germany                          #
                #                                                       #
                #                  All rights reserved                  #
                #                        -***-                          #
                #########################################################


                         Program Version 6.0.1  -  RELEASE   -


 With contributions from (in alphabetic order):
[Max-Planck-Institut fuer Kohlenforschung]                               
  Daniel Aravena         : Magnetic Suceptibility                        
  Michael Atanasov       : Ab Initio Ligand Field Theory (pilot matlab implementation)
  Alexander A. Auer      : GIAO ZORA, VPT2 properties, NMR spectrum      
  Ute Becker             : All parallelization in ORCA, NUMFREQ, NUMCALC 
  Giovanni Bistoni       : ED, misc. LED, open-shell LED, HFLD           
  Martin Brehm           : Molecular dynamics                            
  Dmytro Bykov           : pre 5.0 version of the SCF Hessian            
  Marcos Casanova-Páez   : Triplet and SCS-CIS(D). UHF-(DLPNO)-IP/EA/STEOM-CCSD. UHF-CVS-IP/STEOM-CCSD   
  Vijay G. Chilkuri      : MRCI spin determinant printing, contributions to CSF-ICE 
  Pauline Colinet        : FMM embedding                                 
  Dipayan Datta          : RHF DLPNO-CCSD density                        
  Achintya Kumar Dutta   : EOM-CC, STEOM-CC                              
  Nicolas Foglia         : Exact transition moments, OPA infrastructure, MCD improvements    
  Dmitry Ganyushin       : Spin-Orbit,Spin-Spin,Magnetic field MRCI      
  Miquel Garcia-Rates    : C-PCM and meta-GGA Hessian, CCSD/C-PCM, Gaussian charge scheme 
  Tiago L. C. Gouveia    : GS-ROHF, GS-ROCIS                             
  Yang Guo               : DLPNO-NEVPT2, F12-NEVPT2, CIM, IAO-localization        
  Andreas Hansen         : Spin unrestricted coupled pair/coupled cluster methods 
  Ingolf Harden          : AUTO-CI MPn and infrastructure                
  Benjamin Helmich-Paris : MC-RPA, TRAH-(SCF,CASSCF), AVAS, COSX integrals, SCF dyn. polar. 
  Lee Huntington         : MR-EOM, pCC                                   
  Robert Izsak           : Overlap fitted RIJCOSX, COSX-SCS-MP3, EOM     
  Riya Kayal             : Wick's Theorem for AUTO-CI, AUTO-CI UHF-CCSDT 
  Emily Kempfer          : AUTO-CI, RHF CISDT and CCSDT                  
  Christian Kollmar      : KDIIS, OOCD, Brueckner-CCSD(T), CCSD density, CASPT2, CASPT2-K, improved NEVPT2 
  Axel Koslowski         : Symmetry handling                             
  Simone Kossmann        : meta-GGA functionals, TD-DFT gradient, OOMP2, (MP2 Hessian; deprecated post 5.0) 
  Lucas Lang             : DCDCAS                                        
  Marvin Lechner         : AUTO-CI (C++ implementation), FIC-MRCC        
  Spencer Leger          : CASSCF response                               
  Dagmar Lenk            : GEPOL surface, SMD, ORCA-2-JSON               
  Dimitrios Liakos       : Extrapolation schemes; Compound Job, initial MDCI parallelization 
  Dimitrios Manganas     : Further ROCIS development; embedding schemes. LFT, Crystal Embedding 
  Dimitrios Pantazis     : SARC Basis sets                               
  Anastasios Papadopoulos: AUTO-CI, single reference methods and gradients 
  Taras Petrenko         : pre 6.0 DFT Hessian and TD-DFT gradient, (ASA, deprecated), ECA, 1-Electron XAS/XES, NRVS 
  Peter Pinski           : DLPNO-MP2, DLPNO-MP2 Gradient                 
  Christoph Reimann      : Effective Core Potentials                     
  Marius Retegan         : Local ZFS, SOC                                
  Christoph Riplinger    : Optimizer, TS searches, QM/MM, DLPNO-CCSD(T), (RO)-DLPNO pert. Triples 
  Michael Roemelt        : Original ROCIS implementation                 
  Masaaki Saitow         : Open-shell DLPNO-CCSD energy and density      
  Barbara Sandhoefer     : DKH picture change effects                    
  Kantharuban Sivalingam : CASSCF convergence/infrastructure, NEVPT2 and variants, FIC-MRCI 
  Bernardo de Souza      : ESD, SOC TD-DFT                               
  Georgi L. Stoychev     : AutoAux, RI-MP2 NMR, DLPNO-MP2 response, X2C  
  Van Anh Tran           : RI-MP2 g-tensors                              
  Willem Van den Heuvel  : Paramagnetic NMR                              
  Zikuan Wang            : NOTCH, Electric field optimization            
  Frank Wennmohs         : Technical directorship and infrastructure     
  Hang Xu                : AUTO-CI-Response properties                   
                                                                         
[FACCTs GmbH]                                                            
  Markus Bursch, Miquel Garcia-Rates, Christoph Riplinger, Bernardo de Souza, Georgi L. Stoychev 
                                                                 
  APM, Basis sets (HGBS, AHGBS, def-TZVP (Ac-Lr), def2-XVPD (La-Lu)), CI-OPT, improved COSX, DLPNO-Multilevel,           
  DOCKER, DRACO, updates on ESD, GOAT, IRC, LR-CPCM, MBIS, meta-GGA TD-DFT gradient, ML-optimized integration grids, 
  MM, NACMEs, nearIR, NEB, NEB-TS, NL-DFT gradient (VV10), 2- and 3-layer-ONIOM, interface openCOSMO-RS, QMMM,   
  Crystal-QMMM, SF, symmetry and pop. for TD-DFT, r2SCAN hybrids, SOLVATOR                                   
                                                                         
[Other institutions]                                                     
  V. Asgeirsson          : NEB                                           
  Christoph Bannwarth    : sTDA-DFT, sTD-DFT, PBEh-3c, B97-3c, D3        
  Sebastian Ehlert       : rSCAN, r2SCAN, r2SCAN-3c, D4, dhf basis sets  
  Marvin Friede          : D4 for Fr, Ra, Ac-Lr                          
  Lars Goerigk           : TD-DFT with DH, B97 family of functionals     
  Stefan Grimme          : VdW corrections, initial TS optimization, DFT functionals, gCP, sTDA/sTD-DF 
  Waldemar Hujo          : DFT-NL                                        
  H. Jonsson             : NEB                                           
  Holger Kruse           : gCP                                           
  Marcel Mueller         : wB97X-3c, vDZP basis set                      
  Hagen Neugebauer       : wr2SCAN                                       
  Tobias Risthaus        : range-separated hybrid DFT                    
  Lukas Wittmann         : regularized MP2, r2SCAN double-hybrids, wr2SCAN        
                                                                         
We gratefully acknowledge several colleagues who have allowed us to      
interface, adapt or use parts of their codes:                            
  Ed Valeev, F. Pavosevic, A. Kumar             : LibInt (2-el integral package), F12 methods 
  Garnet Chan, S. Sharma, J. Yang, R. Olivares  : DMRG                   
  Ulf Ekstrom                                   : XCFun DFT Library      
  Mihaly Kallay                                 : mrcc  (arbitrary order and MRCC methods)
  Frank Weinhold                                : gennbo (NPA and NBO analysis)           
  Simon Mueller                                 : openCOSMO-RS                            
  Christopher J. Cramer and Donald G. Truhlar   : smd solvation model                     
  S Lehtola, MJT Oliveira, MAL Marques          : LibXC Library                           
  Liviu Ungur et al                             : ANISO software                          


 Your calculation uses the libint2 library for the computation of 2-el integrals
 For citations please refer to: http://libint.valeyev.net

 Your ORCA version has been built with support for libXC version: 6.2.2
 For citations please refer to: https://libxc.gitlab.io

 This ORCA versions uses:
   CBLAS   interface :  Fast vector & matrix operations
   LAPACKE interface :  Fast linear algebra routines
   Shared memory     :  Shared parallel matrices


NOTE: MaxCore=4000 MB was set to SCF,MP2,MDCI,CIPSI,MRCI and CIS
      => If you want to overwrite this, your respective input block should be placed after the MaxCore statement
Warning: RI is on but no J-basis has been assigned. Assigning Def2/J (nothing to worry about!)
================================================================================

----- Orbital basis set information -----
Your calculation utilizes the basis: def2-TZVPP
   F. Weigend and R. Ahlrichs, Phys. Chem. Chem. Phys. 7, 3297 (2005).

----- AuxJ basis set information -----
Your calculation utilizes the auxiliary basis: def2/J
   F. Weigend, Phys. Chem. Chem. Phys. 8, 1057 (2006).

================================================================================
                                        WARNINGS
                       Please study these warnings very carefully!
================================================================================


WARNING: Analytical and numerical frequencies both set to true
  ===> : Disabling Anfreq
INFO   : Checking CIS options ...

WARNING: Geometry Optimization
  ===> : Switching off AutoStart
         For restart on a previous wavefunction, please use MOREAD

WARNING: CIS/ROCIS methods need fully converged wavefunctions
  ===> : Setting SCFConvForced true
         You can overwrite this default with %scf ConvForced false 


================================================================================
                                       INPUT FILE
================================================================================
NAME = NH3_TDDFT-HFS.inp
|  1> ! HFS def2-TZVPP Opt TightOpt VeryTightSCF
|  2> 
|  3> ! Freq
|  4> ! NumFreq
|  5> 
|  6> %scf
|  7>    MaxIter 400          # Máximo de iteraciones permitidas para el SCF
|  8> end
|  9> 
| 10> %geom
| 11>    TolRMSD 1.0e-5
| 12>    TolMAXD 1.0e-4
| 13>    TolRMSG 1.0e-5
| 14>    TolMAXG 1.0e-4
| 15> end
| 16> 
| 17> 
| 18> %tddft
| 19>   nroots 10
| 20> end
| 21> 
| 22> %pal
| 23>    nprocs 1
| 24> end
| 25> 
| 26> 
| 27> %MaxCore 4000            # Memoria máxima por núcleo (en MB)
| 28> 
| 29> * xyz 0 1
| 30> N       0.00000000    0.00000000    0.11361500
| 31> H       0.00000000    0.93799100   -0.26510100
| 32> H      -0.81232400   -0.46899600   -0.26510100
| 33> H       0.81232400   -0.46899600   -0.26510100
| 34> **                         ****END OF INPUT****
================================================================================

                       *****************************
                       * Geometry Optimization Run *
                       *****************************

Geometry optimization settings:
Update method            Update   .... BFGS
Choice of coordinates    CoordSys .... (2022) Redundant Internals
Initial Hessian          InHess   .... Almloef's Model
Max. no of cycles        MaxIter  .... 50

Convergence Tolerances:
Energy Change            TolE     ....  1.0000e-06 Eh
Max. Gradient            TolMAXG  ....  1.0000e-04 Eh/bohr
RMS Gradient             TolRMSG  ....  1.0000e-05 Eh/bohr
Max. Displacement        TolMAXD  ....  1.0000e-04 bohr
RMS Displacement         TolRMSD  ....  1.0000e-05 bohr
Strict Convergence                .... False

------------------------------------------------------------------------------
                        ORCA OPTIMIZATION COORDINATE SETUP
------------------------------------------------------------------------------

The optimization will be done in redundant internal coordinates (2022)
Making redundant internal coordinates   ...  (2022 redundants) done
Evaluating the initial hessian          ...  (Almloef) done
Evaluating the coordinates              ...  done
Calculating the B-matrix                .... done
Calculating the G-matrix                .... done
Diagonalizing the G-matrix              .... done
The first mode is                       ....    1
The number of degrees of freedom        ....    6

    -----------------------------------------------------------------
                    Redundant Internal Coordinates


    -----------------------------------------------------------------
         Definition                    Initial Value    Approx d2E/dq
    -----------------------------------------------------------------
      1. B(H   1,N   0)                  1.0116         0.430236   
      2. B(H   2,N   0)                  1.0116         0.430236   
      3. B(H   3,N   0)                  1.0116         0.430236   
      4. A(H   1,N   0,H   3)          106.8430         0.302702   
      5. A(H   2,N   0,H   3)          106.8430         0.302702   
      6. A(H   1,N   0,H   2)          106.8430         0.302702   
      7. I(H   1,H   3,H   2,N   0)     60.9075         0.003864   
    -----------------------------------------------------------------

Number of atoms                         .... 4
Number of degrees of freedom            .... 7


         *************************************************************
         *                GEOMETRY OPTIMIZATION CYCLE   1            *
         *************************************************************
---------------------------------
CARTESIAN COORDINATES (ANGSTROEM)
---------------------------------
  N      0.000000    0.000000    0.113615
  H      0.000000    0.937991   -0.265101
  H     -0.812324   -0.468996   -0.265101
  H      0.812324   -0.468996   -0.265101

----------------------------
CARTESIAN COORDINATES (A.U.)
----------------------------
  NO LB      ZA    FRAG     MASS         X           Y           Z
   0 N     7.0000    0    14.007    0.000000    0.000000    0.214701
   1 H     1.0000    0     1.008    0.000000    1.772546   -0.500968
   2 H     1.0000    0     1.008   -1.535070   -0.886274   -0.500968
   3 H     1.0000    0     1.008    1.535070   -0.886274   -0.500968

--------------------------------
INTERNAL COORDINATES (ANGSTROEM)
--------------------------------
 N      0   0   0     0.000000000000     0.00000000     0.00000000
 H      1   0   0     1.011559649619     0.00000000     0.00000000
 H      1   2   0     1.011559853715   106.84302597     0.00000000
 H      1   2   3     1.011559853715   106.84302597   114.07643751

---------------------------
INTERNAL COORDINATES (A.U.)
---------------------------
 N      0   0   0     0.000000000000     0.00000000     0.00000000
 H      1   0   0     1.911570705905     0.00000000     0.00000000
 H      1   2   0     1.911571091591   106.84302597     0.00000000
 H      1   2   3     1.911571091591   106.84302597   114.07643751

---------------------
BASIS SET INFORMATION
---------------------
There are 2 groups of distinct atoms

 Group   1 Type N   : 11s6p2d1f contracted to 5s3p2d1f pattern {62111/411/11/1}
 Group   2 Type H   : 5s2p1d contracted to 3s2p1d pattern {311/11/1}

Atom   0N    basis set group =>   1
Atom   1H    basis set group =>   2
Atom   2H    basis set group =>   2
Atom   3H    basis set group =>   2
---------------------------------
AUXILIARY/J BASIS SET INFORMATION
---------------------------------
There are 2 groups of distinct atoms

 Group   1 Type N   : 12s5p4d2f1g contracted to 6s4p3d1f1g pattern {711111/2111/211/2/1}
 Group   2 Type H   : 5s2p1d contracted to 3s1p1d pattern {311/2/1}

Atom   0N    basis set group =>   1
Atom   1H    basis set group =>   2
Atom   2H    basis set group =>   2
Atom   3H    basis set group =>   2
------------------------------------------------------------------------------
                             ORCA STARTUP CALCULATIONS
                           -- RI-GTO INTEGRALS CHOSEN --
------------------------------------------------------------------------------
------------------------------------------------------------------------------
                   ___                                                        
                  /   \      - P O W E R E D   B Y -                         
                 /     \                                                     
                 |  |  |   _    _      __       _____    __    __             
                 |  |  |  | |  | |    /  \     |  _  \  |  |  /  |          
                  \  \/   | |  | |   /    \    | | | |  |  | /  /          
                 / \  \   | |__| |  /  /\  \   | |_| |  |  |/  /          
                |  |  |   |  __  | /  /__\  \  |    /   |      \           
                |  |  |   | |  | | |   __   |  |    \   |  |\   \          
                \     /   | |  | | |  |  |  |  | |\  \  |  | \   \       
                 \___/    |_|  |_| |__|  |__|  |_| \__\ |__|  \__/        
                                                                              
                      - O R C A' S   B I G   F R I E N D -                    
                                      &                                       
                       - I N T E G R A L  F E E D E R -                       
                                                                              
 v1 FN, 2020, v2 2021, v3 2022-2024                                           
------------------------------------------------------------------------------


----------------------
SHARK INTEGRAL PACKAGE
----------------------

Number of atoms                             ...      4
Number of basis functions                   ...     73
Number of shells                            ...     29
Maximum angular momentum                    ...      3
Integral batch strategy                     ... SHARK/LIBINT Hybrid
RI-J (if used) integral strategy            ... SPLIT-RIJ (Revised 2003 algorithm where possible)
Printlevel                                  ...      1
Contraction scheme used                     ... SEGMENTED contraction
Prescreening option                         ... SCHWARTZ
   Thresh                                   ... 1.000e-12
   Tcut                                     ... 1.000e-14
   Tpresel                                  ... 1.000e-14 
Coulomb Range Separation                    ... NOT USED
Exchange Range Separation                   ... NOT USED
Multipole approximations                    ... NOT USED
Finite Nucleus Model                        ... NOT USED
CABS basis                                  ... NOT available
Auxiliary Coulomb fitting basis             ... AVAILABLE
   # of basis functions in Aux-J            ...     82
   # of shells in Aux-J                     ...     30
   Maximum angular momentum in Aux-J        ...      4
Auxiliary J/K fitting basis                 ... NOT available
Auxiliary Correlation fitting basis         ... NOT available
Auxiliary 'external' fitting basis          ... NOT available

Checking pre-screening integrals            ... done (  0.0 sec) Dimension = 29
Check shell pair data                       ... done (  0.0 sec)
Shell pair information
Shell pair cut-off parameter TPreSel        ...   1.0e-14
Total number of shell pairs                 ...       435
Shell pairs after pre-screening             ...       435
Total number of primitive shell pairs       ...      1021
Primitive shell pairs kept                  ...       991
          la=0 lb=0:    105 shell pairs
          la=1 lb=0:    126 shell pairs
          la=1 lb=1:     45 shell pairs
          la=2 lb=0:     70 shell pairs
          la=2 lb=1:     45 shell pairs
          la=2 lb=2:     15 shell pairs
          la=3 lb=0:     14 shell pairs
          la=3 lb=1:      9 shell pairs
          la=3 lb=2:      5 shell pairs
          la=3 lb=3:      1 shell pairs

Calculating one electron integrals          ... done (  0.0 sec)
Calculating RI/J V-Matrix + Cholesky decomp.... done (  0.0 sec)
Calculating Nuclear repulsion               ... done (  0.0 sec) ENN=     11.962882715546 Eh

Diagonalization of the overlap matrix:
Smallest eigenvalue                        ... 8.866e-04
Time for diagonalization                   ...    0.001 sec
Threshold for overlap eigenvalues          ... 1.000e-07
Number of eigenvalues below threshold      ... 0
Time for construction of square roots      ...    0.001 sec
Total time needed                          ...    0.007 sec

-------------------
DFT GRID GENERATION
-------------------

General Integration Accuracy     IntAcc      ... 4.388
Radial Grid Type                 RadialGrid  ... OptM3 with GC (2021)
Angular Grid (max. ang.)         AngularGrid ... 4 (Lebedev-302)
Angular grid pruning method      GridPruning ... 4 (adaptive)
Weight generation scheme         WeightScheme... mBecke (2022)
Basis function cutoff            BFCut       ... 1.0000e-12
Integration weight cutoff        WCut        ... 1.0000e-14
Partially contracted basis set               ... off
Rotationally invariant grid construction     ... off
Angular grids for H and He will be reduced by one unit

Total number of grid points                  ...    16020
Total number of batches                      ...      252
Average number of points per batch           ...       63
Average number of grid points per atom       ...     4005
Initializing property integral containers    ... done (  0.0 sec)

SHARK setup successfully completed in   0.1 seconds

Maximum memory used throughout the entire STARTUP-calculation: 13.7 MB
-------------------------------------------------------------------------------
                                 ORCA GUESS
                   Start orbitals & Density for SCF / CASSCF
-------------------------------------------------------------------------------

------------
SCF SETTINGS
------------
Hamiltonian:
 Density Functional     Method          .... DFT(GTOs)
 Exchange Functional    Exchange        .... Slater
   X-Alpha parameter    XAlpha          ....  0.666667
 Correlation Functional Correlation     .... No Correlation
 Gradients option       PostSCFGGA      .... off
 RI-approximation to the Coulomb term is turned on
   Number of AuxJ basis functions       .... 82


General Settings:
 Integral files         IntName         .... NH3_TDDFT-HFS
 Hartree-Fock type      HFTyp           .... RHF
 Total Charge           Charge          ....    0
 Multiplicity           Mult            ....    1
 Number of Electrons    NEL             ....   10
 Basis Dimension        Dim             ....   73
 Nuclear Repulsion      ENuc            ....     11.9628827155 Eh

Convergence Acceleration:
 AO-DIIS                CNVDIIS         .... on
   Start iteration      DIISMaxIt       ....    12
   Startup error        DIISStart       ....  0.200000
   # of expansion vecs  DIISMaxEq       ....     5
   Bias factor          DIISBfac        ....   1.050
   Max. coefficient     DIISMaxC        ....  10.000
 MO-DIIS                CNVKDIIS        .... off
 Trust-Rad. Augm. Hess. CNVTRAH         .... auto
   Auto Start mean grad. ratio tolernc. ....  1.125000
   Auto Start start iteration           ....    50
   Auto Start num. interpolation iter.  ....    10
   Max. Number of Micro iterations      ....    24
   Max. Number of Macro iterations      .... Maxiter - #DIIS iter
   Number of Davidson start vectors     ....     2
   Converg. threshold    (grad. norm)   ....   2.000e-06
   Grad. Scal. Fac. for Micro threshold ....   0.100
   Minimum threshold for Micro iter.    ....   1.000e-02
   NR start threshold (gradient norm)   ....   1.000e-04
   Initial trust radius                 ....   0.400
   Minimum AH scaling param. (alpha)    ....   1.000
   Maximum AH scaling param. (alpha)    .... 1000.000
   Quad. conv. algorithm                .... NR
   White noise on init. David. guess    .... on
   Maximum white noise                  ....   0.010
   Pseudo random numbers                .... off
   Inactive MOs                         .... canonical
   Orbital update algorithm             .... Taylor
   Preconditioner                       .... Diag
   Full preconditioner red. dimension   ....   250
 SOSCF                  CNVSOSCF        .... on
   Start iteration      SOSCFMaxIt      ....   150
   Startup grad/error   SOSCFStart      ....  0.003300
   Hessian update       SOSCFHessUp     .... L-BFGS
 Level Shifting         CNVShift        .... on
   Level shift para.    LevelShift      ....    0.2500
   Turn off err/grad.   ShiftErr        ....    0.0010
 Zerner damping         CNVZerner       .... off
 Static damping         CNVDamp         .... on
   Fraction old density DampFac         ....    0.7000
   Max. Damping (<1)    DampMax         ....    0.9800
   Min. Damping (>=0)   DampMin         ....    0.0000
   Turn off err/grad.   DampErr         ....    0.1000

SCF Procedure:
 Maximum # iterations   MaxIter         ....   400
 SCF integral mode      SCFMode         .... Direct
   Integral package                     .... SHARK and LIBINT hybrid scheme
 Reset frequency        DirectResetFreq ....    20
 Integral Threshold     Thresh          ....  1.000e-12 Eh
 Primitive CutOff       TCut            ....  1.000e-14 Eh

Convergence Tolerance:
 Convergence Check Mode ConvCheckMode   .... Total+1el-Energy
 Convergence forced     ConvForced      .... 1
 Energy Change          TolE            ....  1.000e-09 Eh
 1-El. energy change                    ....  1.000e-06 Eh
 Orbital Gradient       TolG            ....  2.000e-06
 Orbital Rotation angle TolX            ....  2.000e-06
 DIIS Error             TolErr          ....  1.000e-08

------------------------------
INITIAL GUESS: MODEL POTENTIAL
------------------------------
Loading Hartree-Fock densities                     ... done
Calculating cut-offs                               ... done
Initializing the effective Hamiltonian             ... done
Setting up the integral package (SHARK)            ... done
Starting the Coulomb interaction                   ... done (   0.0 sec)
Making the grid                                    ... done (   0.0 sec)
Mapping shells                                     ... done
Starting the XC term evaluation                    ... done (   0.0 sec)
  promolecular density results
     # of electrons  =      9.997943079
     EX              =     -6.701143225
     EC              =      0.000000000
     EX+EC           =     -6.701143225
Transforming the Hamiltonian                       ... done (   0.0 sec)
Diagonalizing the Hamiltonian                      ... done (   0.0 sec)
Back transforming the eigenvectors                 ... done (   0.0 sec)
Now organizing SCF variables                       ... done
                      ------------------
                      INITIAL GUESS DONE (   0.1 sec)
                      ------------------
             **** ENERGY FILE WAS UPDATED (NH3_TDDFT-HFS.en.tmp) ****
Finished Guess after   0.1 sec
Maximum memory used throughout the entire GUESS-calculation: 7.6 MB

-------------------------------------------------------------------------------------------
                                      ORCA LEAN-SCF
                              memory conserving SCF solver
-------------------------------------------------------------------------------------------

----------------------------------------D-I-I-S--------------------------------------------
Iteration    Energy (Eh)           Delta-E    RMSDP     MaxDP     DIISErr   Damp  Time(sec)
-------------------------------------------------------------------------------------------
               ***  Starting incremental Fock matrix formation  ***
    1    -48.2191381621812596     0.00e+00  2.11e-02  3.43e-01  1.43e+00  0.700   0.1
Warning: op=0 Small HOMO/LUMO gap (   0.004) - skipping pre-diagonalization
         Will do a full diagonalization
    2    -48.5760911743982220    -3.57e-01  1.10e-02  2.76e-01  9.12e-01  0.700   0.1
    3    -48.6523455432299201    -7.63e-02  3.36e-03  5.43e-02  5.89e-01  0.700   0.1
    4    -48.7124159463877149    -6.01e-02  3.87e-03  7.16e-02  3.89e-01  0.700   0.1
    5    -48.7600603203135066    -4.76e-02  3.48e-03  7.39e-02  2.61e-01  0.700   0.1
                               ***Turning on AO-DIIS***
    6    -48.7918197923401564    -3.18e-02  2.68e-03  7.16e-02  1.74e-01  0.700   0.1
    7    -48.8137279342522845    -2.19e-02  2.02e-03  5.98e-02  1.22e-01  0.700   0.1
    8    -48.8292114852300259    -1.55e-02  1.50e-03  4.73e-02  8.33e-02  0.700   0.1
    9    -48.8400254291098079    -1.08e-02  3.68e-03  1.18e-01  5.76e-02  0.000   0.1
   10    -48.8650733484639517    -2.50e-02  1.95e-04  4.18e-03  5.18e-03  0.000   0.1
                              *** Initializing SOSCF ***
---------------------------------------S-O-S-C-F--------------------------------------
Iteration    Energy (Eh)           Delta-E    RMSDP     MaxDP     MaxGrad    Time(sec)
--------------------------------------------------------------------------------------
   11    -48.8650984708299418    -2.51e-05  9.12e-05  2.33e-03  5.02e-04     0.1
               *** Restarting incremental Fock matrix formation ***
   12    -48.8650991362116969    -6.65e-07  1.76e-04  4.68e-03  1.45e-04     0.1
   13    -48.8650990986956089     3.75e-08  1.06e-04  2.95e-03  3.22e-04     0.1
   14    -48.8650995002453215    -4.02e-07  8.00e-05  2.11e-03  6.07e-05     0.1
   15    -48.8650995584954160    -5.83e-08  1.36e-05  3.16e-04  2.63e-05     0.1
   16    -48.8650995677200868    -9.22e-09  2.55e-06  7.41e-05  5.32e-06     0.1
   17    -48.8650995679055029    -1.85e-10  6.34e-07  1.78e-05  6.83e-07     0.1
                 **** Energy Check signals convergence ****

               *****************************************************
               *                     SUCCESS                       *
               *           SCF CONVERGED AFTER  17 CYCLES          *
               *****************************************************

             **** ENERGY FILE WAS UPDATED (NH3_TDDFT-HFS.en.tmp) ****

----------------
TOTAL SCF ENERGY
----------------

Total Energy       :        -48.86509956790550 Eh           -1329.68696 eV

Components:
Nuclear Repulsion  :         11.96288271554579 Eh             325.52659 eV
Electronic Energy  :        -60.82798228345129 Eh           -1655.21355 eV
One Electron Energy:        -96.29811555852572 Eh           -2620.40494 eV
Two Electron Energy:         35.47013327507443 Eh             965.19140 eV

Virial components:
Potential Energy   :        -99.28941752478923 Eh           -2701.80241 eV
Kinetic Energy     :         50.42431795688373 Eh            1372.11545 eV
Virial Ratio       :          1.96907804701867

DFT components:
N(Alpha)           :        0.000000000000 electrons
N(Beta)            :        0.000000000000 electrons
N(Total)           :        0.000000000000 electrons
E(X)               :        0.000000000000 Eh       
E(C)               :        0.000000000000 Eh       
E(XC)              :        0.000000000000 Eh       

---------------
SCF CONVERGENCE
---------------

  Last Energy change         ...    1.8542e-10  Tolerance :   1.0000e-09
  Last MAX-Density change    ...    1.7845e-05  Tolerance :   1.0000e-08
  Last RMS-Density change    ...    6.3437e-07  Tolerance :   1.0000e-09
  Last DIIS Error            ...    5.0244e-04  Tolerance :   1.0000e-08
  Last Orbital Gradient      ...    6.8336e-07  Tolerance :   2.0000e-06
  Last Orbital Rotation      ...    3.6491e-06  Tolerance :   2.0000e-06


----------------
ORBITAL ENERGIES
----------------

  NO   OCC          E(Eh)            E(eV) 
   0   2.0000     -12.140785      -330.3675 
   1   2.0000      -0.415967       -11.3190 
   2   2.0000      -0.095631        -2.6022 
   3   2.0000      -0.095631        -2.6022 
   4   2.0000       0.069089         1.8800 
   5   0.0000       0.145348         3.9551 
   6   0.0000       0.233233         6.3466 
   7   0.0000       0.233233         6.3466 
   8   0.0000       0.459691        12.5088 
   9   0.0000       0.459691        12.5088 
  10   0.0000       0.511733        13.9250 
  11   0.0000       0.612281        16.6610 
  12   0.0000       0.675905        18.3923 
  13   0.0000       0.680932        18.5291 
  14   0.0000       0.680932        18.5291 
  15   0.0000       0.759077        20.6555 
*Only the first 10 virtual orbitals were printed.

                    ********************************
                    * MULLIKEN POPULATION ANALYSIS *
                    ********************************

-----------------------
MULLIKEN ATOMIC CHARGES
-----------------------
   0 N :   -0.337073
   1 H :    0.112358
   2 H :    0.112358
   3 H :    0.112358
Sum of atomic charges:    0.0000000

--------------------------------
MULLIKEN REDUCED ORBITAL CHARGES
--------------------------------
  0 N s       :     3.347648  s :     3.347648
      pz      :     1.869753  p :     3.969614
      px      :     1.049931
      py      :     1.049931
      dz2     :     0.001602  d :     0.019477
      dxz     :     0.007186
      dyz     :     0.007186
      dx2y2   :     0.001752
      dxy     :     0.001752
      f0      :     0.000290  f :     0.000333
      f+1     :     0.000066
      f-1     :     0.000066
      f+2     :    -0.000016
      f-2     :    -0.000016
      f+3     :     0.000000
      f-3     :    -0.000056

  1 H s       :     0.826183  s :     0.826183
      pz      :     0.032541  p :     0.058790
      px      :     0.015737
      py      :     0.010511
      dz2     :     0.000265  d :     0.002669
      dxz     :     0.000105
      dyz     :     0.001858
      dx2y2   :    -0.000251
      dxy     :     0.000692

  2 H s       :     0.826183  s :     0.826183
      pz      :     0.032541  p :     0.058790
      px      :     0.011818
      py      :     0.014431
      dz2     :     0.000265  d :     0.002669
      dxz     :     0.001420
      dyz     :     0.000543
      dx2y2   :     0.000456
      dxy     :    -0.000015

  3 H s       :     0.826183  s :     0.826183
      pz      :     0.032541  p :     0.058790
      px      :     0.011818
      py      :     0.014431
      dz2     :     0.000265  d :     0.002669
      dxz     :     0.001420
      dyz     :     0.000543
      dx2y2   :     0.000456
      dxy     :    -0.000015



                     *******************************
                     * LOEWDIN POPULATION ANALYSIS *
                     *******************************

----------------------
LOEWDIN ATOMIC CHARGES
----------------------
   0 N :    0.308909
   1 H :   -0.102970
   2 H :   -0.102970
   3 H :   -0.102970

-------------------------------
LOEWDIN REDUCED ORBITAL CHARGES
-------------------------------
  0 N s       :     2.901667  s :     2.901667
      pz      :     1.515937  p :     3.727534
      px      :     1.105799
      py      :     1.105799
      dz2     :     0.003464  d :     0.057249
      dxz     :     0.010132
      dyz     :     0.010132
      dx2y2   :     0.016761
      dxy     :     0.016761
      f0      :     0.000271  f :     0.004641
      f+1     :     0.000000
      f-1     :     0.000000
      f+2     :     0.001551
      f-2     :     0.001551
      f+3     :     0.000000
      f-3     :     0.001268

  1 H s       :     0.796964  s :     0.796964
      pz      :     0.117343  p :     0.260841
      px      :     0.060652
      py      :     0.082846
      dz2     :     0.006617  d :     0.045165
      dxz     :     0.001309
      dyz     :     0.014999
      dx2y2   :     0.009330
      dxy     :     0.012909

  2 H s       :     0.796964  s :     0.796964
      pz      :     0.117343  p :     0.260841
      px      :     0.077298
      py      :     0.066200
      dz2     :     0.006617  d :     0.045165
      dxz     :     0.011577
      dyz     :     0.004732
      dx2y2   :     0.012014
      dxy     :     0.010225

  3 H s       :     0.796964  s :     0.796964
      pz      :     0.117343  p :     0.260841
      px      :     0.077298
      py      :     0.066200
      dz2     :     0.006617  d :     0.045165
      dxz     :     0.011577
      dyz     :     0.004732
      dx2y2   :     0.012014
      dxy     :     0.010225



                      *****************************
                      * MAYER POPULATION ANALYSIS *
                      *****************************

  NA   - Mulliken gross atomic population
  ZA   - Total nuclear charge
  QA   - Mulliken gross atomic charge
  VA   - Mayer's total valence
  BVA  - Mayer's bonded valence
  FA   - Mayer's free valence

  ATOM       NA         ZA         QA         VA         BVA        FA
  0 N      7.3371     7.0000    -0.3371     3.0293     3.0293     0.0000
  1 H      0.8876     1.0000     0.1124     0.9943     0.9943     0.0000
  2 H      0.8876     1.0000     0.1124     0.9943     0.9943     0.0000
  3 H      0.8876     1.0000     0.1124     0.9943     0.9943    -0.0000

  Mayer bond orders larger than 0.100000
B(  0-N ,  1-H ) :   1.0098 B(  0-N ,  2-H ) :   1.0098 B(  0-N ,  3-H ) :   1.0098 


-------
TIMINGS
-------

Total SCF time: 0 days 0 hours 0 min 1 sec 

Total time                  ....       1.435 sec
Sum of individual times     ....       1.424 sec  ( 99.2%)

SCF preparation             ....       0.039 sec  (  2.7%)
Fock matrix formation       ....       0.298 sec  ( 20.8%)
  Startup                   ....       0.022 sec  (  7.4% of F)
  Split-RI-J                ....       0.157 sec  ( 52.7% of F)
Diagonalization             ....       0.000 sec  (  0.0%)
Density matrix formation    ....       0.360 sec  ( 25.1%)
Total Energy calculation    ....       0.171 sec  ( 11.9%)
Population analysis         ....       0.013 sec  (  0.9%)
Orbital Transformation      ....       0.035 sec  (  2.4%)
Orbital Orthonormalization  ....       0.000 sec  (  0.0%)
DIIS solution               ....       0.394 sec  ( 27.5%)
SOSCF solution              ....       0.114 sec  (  7.9%)
Finished LeanSCF after   1.5 sec

Maximum memory used throughout the entire LEANSCF-calculation: 5.4 MB

------------------------------------------------------------------------------
                         ORCA PROPERTY INTEGRAL CALCULATIONS
------------------------------------------------------------------------------

GBWName                                   ... NH3_TDDFT-HFS.gbw
Number of atoms                           ...      4
Number of basis functions                 ...     73
Max core memory                           ...   4000 MB

Dipole integrals                          ... YES
Quadrupole integrals                      ...  NO
Linear momentum integrals                 ... YES
Angular momentum integrals                ... YES
Higher moments length integrals           ...  NO
Higher moments velocity integrals         ...  NO
Kinetic energy integrals                  ...  NO
GIAO right hand sides                     ...  NO
GIAO dipole derivative integrals          ...  NO
SOC integrals                             ...  NO
EPR diamagnetic integrals (GIAO)          ...  NO
EPR gauge integrals                       ...  NO
Field gradient integrals                  ...  NO (   0 nuclei)
Spin-dipole/Fermi contact integrals       ...  NO (   0 nuclei)
Contact density integrals                 ...  NO (   0 nuclei)
Nucleus-orbit integrals                   ...  NO (   0 nuclei)
Geometric perturbations                   ...  NO (   4 nuclei)

Choice of electric origin   ... Center of mass
Position of electric origin ... (  0.0000, -0.0000,  0.0876) 
Choice of magnetic origin   ... GIAO
Position of magnetic origin ... (  0.0000,  0.0000,  0.0000) 

Calculating integrals                     ... Electric Dipole (Length)     done (  0.0 sec)
Calculating integrals                     ... Linear Momentum              done (  0.0 sec)
Calculating integrals                     ... Angular Momentum  (ElOri)    done (  0.0 sec)

Property integrals calculated in   0.1 sec

Maximum memory used throughout the entire PROPINT-calculation: 7.8 MB
------------------------------------------------------------------------------
                        ORCA TD-DFT/TDA CALCULATION
------------------------------------------------------------------------------

Input orbitals are from        ... NH3_TDDFT-HFS.gbw
CI-vector output               ... NH3_TDDFT-HFS.cis
Solver                         ... FN-2001
Tamm-Dancoff approximation     ... operative
CIS-Integral strategy          ... AO-integrals
Integral handling              ... AO integral Direct
Max. core memory used          ... 4000 MB
Reference state                ... RHF
Generation of triplets         ... off
Follow IRoot                   ... off
Number of operators            ... 1
Orbital ranges used for CIS calculation:
 Operator 0:  Orbitals   1...  4  to   5... 72
XAS localization array:
 Operator 0:  Orbitals  -1... -1

-------------------
XC-INTEGRATION GRID
-------------------

General Integration Accuracy     IntAcc      ... 3.467
Radial Grid Type                 RadialGrid  ... OptM3 with GC (2021)
Angular Grid (max. ang.)         AngularGrid ... 1 (Lebedev-50)
Angular grid pruning method      GridPruning ... 4 (adaptive)
Weight generation scheme         WeightScheme... mBecke (2022)
Basis function cutoff            BFCut       ... 1.0000e-12
Integration weight cutoff        WCut        ... 1.0000e-14
Partially contracted basis set               ... off
Rotationally invariant grid construction     ... off
Angular grids for H and He will be reduced by one unit

Total number of grid points                  ...     2268
Total number of batches                      ...       38
Average number of points per batch           ...       59
Average number of grid points per atom       ...      567

---------------
TD-DFT XC SETUP
---------------

DFT calculation                         ... on
Name of the grid file                   ... NH3_TDDFT-HFS.grid_cis.tmp
RI-approximation                        ... on
Aux-basis dimension                     ... 0
Exchange functional (TD-DFT)            ... Slater
   X-Alpha parameter    XAlpha (TD-DFT) ...  0.666667
Correlation functional (TD-DFT)         ... No Correlation

Building densities             ... done
Calculating rho(r) on the grid ... done
Building xc-kernel on the grid ... done
                    *** TD-DFT CALCULATION INITIALIZED ***

------------------------
DAVIDSON-DIAGONALIZATION
------------------------

Dimension of the eigenvalue problem            ...    272
Number of roots to be determined               ...     10
Maximum size of the expansion space            ...    100
Maximum number of iterations                   ...    100
Convergence tolerance for the residual         ...    1.000e-07
Convergence tolerance for the energies         ...    1.000e-07
Orthogonality tolerance                        ...    1.000e-14
Level Shift                                    ...    0.000e+00
Constructing the preconditioner                ... o.k.
Building the initial guess                     ... o.k.
Number of trial vectors determined             ...    100


                       ****Iteration    0****
   Time for iteration     :  TOTAL=0.6 TRAFO=0.5 RIJ=0.0
   Size of expansion space: 30
   Lowest Energy          :     0.092815174462
   Maximum Energy change  :     0.417132154401 (vector 9)
   Maximum residual norm  :     0.008001626347

                       ****Iteration    1****
   Time for iteration     :  TOTAL=0.2 TRAFO=0.1 RIJ=0.0
   Size of expansion space: 40
   Lowest Energy          :     0.091611042807
   Maximum Energy change  :     0.008168802262 (vector 8)
   Maximum residual norm  :     0.000163213298

                       ****Iteration    2****
   Time for iteration     :  TOTAL=0.2 TRAFO=0.1 RIJ=0.0
   Size of expansion space: 50
   Lowest Energy          :     0.091604443127
   Maximum Energy change  :     0.000087589824 (vector 8)
   Maximum residual norm  :     0.000000474614

                       ****Iteration    3****
   Time for iteration     :  TOTAL=0.2 TRAFO=0.1 RIJ=0.0
   Size of expansion space: 60
   Lowest Energy          :     0.091604428034
   Maximum Energy change  :     0.000000221863 (vector 8)
   Maximum residual norm  :     0.000000001646

      *** CONVERGENCE OF RESIDUAL NORM REACHED ***

Storing the converged CI vectors               ... NH3_TDDFT-HFS.cis1

                 *** DAVIDSON DONE ***

Total time for solving the CIS problem:     5.692sec

------------------------------------
TD-DFT/TDA EXCITED STATES (SINGLETS)
------------------------------------

the weight of the individual excitations are printed if larger than 1.0e-02

STATE  1:  E=   0.091604 au      2.493 eV    20104.8 cm**-1 <S**2> =   0.000000 Mult 1
     4a ->   5a  :     0.992267 (c=  0.99612577)

STATE  2:  E=   0.176903 au      4.814 eV    38825.7 cm**-1 <S**2> =   0.000000 Mult 1
     4a ->   6a  :     0.987764 (c=  0.99386308)

STATE  3:  E=   0.176903 au      4.814 eV    38825.7 cm**-1 <S**2> =   0.000000 Mult 1
     4a ->   7a  :     0.987764 (c=  0.99386307)

STATE  4:  E=   0.261803 au      7.124 eV    57459.2 cm**-1 <S**2> =   0.000000 Mult 1
     2a ->   7a  :     0.010651 (c=  0.10320410)
     3a ->   5a  :     0.966708 (c=  0.98321319)
     3a ->   6a  :     0.010651 (c=  0.10320434)

STATE  5:  E=   0.261803 au      7.124 eV    57459.2 cm**-1 <S**2> =   0.000000 Mult 1
     2a ->   5a  :     0.966708 (c= -0.98321317)
     2a ->   6a  :     0.010651 (c=  0.10320424)
     3a ->   7a  :     0.010651 (c= -0.10320448)

STATE  6:  E=   0.329741 au      8.973 eV    72369.8 cm**-1 <S**2> =   0.000000 Mult 1
     2a ->   7a  :     0.499848 (c=  0.70699950)
     3a ->   6a  :     0.499857 (c= -0.70700547)

STATE  7:  E=   0.352710 au      9.598 eV    77411.0 cm**-1 <S**2> =   0.000000 Mult 1
     2a ->   5a  :     0.017800 (c=  0.13341712)
     2a ->   6a  :     0.478285 (c=  0.69158186)
     3a ->   7a  :     0.478287 (c= -0.69158300)
     4a ->   9a  :     0.019044 (c=  0.13799918)

STATE  8:  E=   0.352710 au      9.598 eV    77411.0 cm**-1 <S**2> =   0.000000 Mult 1
     2a ->   7a  :     0.478291 (c= -0.69158554)
     3a ->   5a  :     0.017800 (c=  0.13341696)
     3a ->   6a  :     0.478282 (c= -0.69157944)
     4a ->   8a  :     0.019044 (c=  0.13799879)

STATE  9:  E=   0.396161 au     10.780 eV    86947.3 cm**-1 <S**2> =   0.000000 Mult 1
     1a ->   5a  :     0.021207 (c=  0.14562719)
     2a ->   6a  :     0.405114 (c=  0.63648536)
     3a ->   7a  :     0.405112 (c=  0.63648401)
     4a ->  10a  :     0.147098 (c= -0.38353318)

STATE 10:  E=   0.415330 au     11.302 eV    91154.4 cm**-1 <S**2> =   0.000000 Mult 1
     4a ->   8a  :     0.963249 (c=  0.98145227)


-----------------------------
TD-DFT/TDA-EXCITATION SPECTRA
-----------------------------

Center of mass = (  0.0000, -0.0000,  0.0876)
Generating CIS transition densities           ... done

----------------------------------------------------------------------------------------------------
                     ABSORPTION SPECTRUM VIA TRANSITION ELECTRIC DIPOLE MOMENTS    
----------------------------------------------------------------------------------------------------
     Transition      Energy     Energy  Wavelength fosc(D2)      D2        DX        DY        DZ   
                      (eV)      (cm-1)    (nm)                 (au**2)    (au)      (au)      (au)  
----------------------------------------------------------------------------------------------------
  0-1A  ->  1-1A    2.492683   20104.8   497.4   0.035735375   0.58516   0.00000  -0.00000  -0.76496
  0-1A  ->  2-1A    4.813769   38825.7   257.6   0.019774855   0.16768   0.00000   0.40948  -0.00000
  0-1A  ->  3-1A    4.813770   38825.7   257.6   0.019774824   0.16768  -0.40948   0.00000   0.00000
  0-1A  ->  4-1A    7.124028   57459.2   174.0   0.161755153   0.92678   0.96269  -0.00000  -0.00000
  0-1A  ->  5-1A    7.124032   57459.2   174.0   0.161755202   0.92677   0.00000   0.96269   0.00000
  0-1A  ->  6-1A    8.972706   72369.8   138.2   0.000000000   0.00000   0.00000   0.00000   0.00000
  0-1A  ->  7-1A    9.597735   77411.0   129.2   0.165176730   0.70246  -0.00000  -0.83813  -0.00000
  0-1A  ->  8-1A    9.597735   77411.0   129.2   0.165176733   0.70246   0.83813  -0.00000   0.00000
  0-1A  ->  9-1A   10.780093   86947.3   115.0   0.101219146   0.38325  -0.00000  -0.00000   0.61907
  0-1A  -> 10-1A   11.301707   91154.4   109.7   0.113831682   0.41111  -0.64118   0.00000   0.00000

----------------------------------------------------------------------------------------------------
                     ABSORPTION SPECTRUM VIA TRANSITION VELOCITY DIPOLE MOMENTS    
----------------------------------------------------------------------------------------------------
     Transition      Energy     Energy  Wavelength fosc(P2)      P2        PX        PY        PZ   
                      (eV)      (cm-1)    (nm)                 (au**2)    (au)      (au)      (au)  
----------------------------------------------------------------------------------------------------
  0-1A  ->  1-1A    2.492683   20104.8   497.4   0.116257043   0.01597   0.00000   0.00000   0.12639
  0-1A  ->  2-1A    4.813769   38825.7   257.6   0.004353850   0.00116  -0.00000  -0.03399   0.00000
  0-1A  ->  3-1A    4.813770   38825.7   257.6   0.004353811   0.00116   0.03399  -0.00000  -0.00000
  0-1A  ->  4-1A    7.124028   57459.2   174.0   0.115898850   0.04551  -0.21334   0.00000   0.00000
  0-1A  ->  5-1A    7.124032   57459.2   174.0   0.115898840   0.04551  -0.00000  -0.21334  -0.00000
  0-1A  ->  6-1A    8.972706   72369.8   138.2   0.000000000   0.00000  -0.00000  -0.00000   0.00000
  0-1A  ->  7-1A    9.597735   77411.0   129.2   0.086767166   0.04591   0.00000   0.21426   0.00000
  0-1A  ->  8-1A    9.597735   77411.0   129.2   0.086767048   0.04591  -0.21426   0.00000  -0.00000
  0-1A  ->  9-1A   10.780093   86947.3   115.0   0.074008783   0.04398   0.00000   0.00000  -0.20971
  0-1A  -> 10-1A   11.301707   91154.4   109.7   0.090990707   0.05669   0.23809  -0.00000  -0.00000

------------------------------------------------------------------------------------------
                     CD SPECTRUM VIA TRANSITION ELECTRIC DIPOLE MOMENTS    
------------------------------------------------------------------------------------------
     Transition      Energy     Energy  Wavelength    R        MX        MY        MZ   
                      (eV)      (cm-1)    (nm)   (1e40*cgs)   (au)      (au)      (au)  
------------------------------------------------------------------------------------------
  0-1A  ->  1-1A    2.492683   20104.8   497.4    0.00000  -0.00000  -0.00000   0.00000
  0-1A  ->  2-1A    4.813769   38825.7   257.6    0.00000   0.06369  -0.00000  -0.00000
  0-1A  ->  3-1A    4.813770   38825.7   257.6    0.00000   0.00000   0.06369   0.00000
  0-1A  ->  4-1A    7.124028   57459.2   174.0   -0.00000   0.00000   0.06562   0.00000
  0-1A  ->  5-1A    7.124032   57459.2   174.0   -0.00000  -0.06562   0.00000   0.00000
  0-1A  ->  6-1A    8.972706   72369.8   138.2    0.00000  -0.00000  -0.00000  -0.14036
  0-1A  ->  7-1A    9.597735   77411.0   129.2   -0.00000   0.01581  -0.00000  -0.00000
  0-1A  ->  8-1A    9.597735   77411.0   129.2   -0.00000   0.00000   0.01581   0.00000
  0-1A  ->  9-1A   10.780093   86947.3   115.0   -0.00000  -0.00000  -0.00000   0.00000
  0-1A  -> 10-1A   11.301707   91154.4   109.7    0.00000   0.00000   0.17020  -0.00000

------------------------------------------------------------------------------------------
                     CD SPECTRUM VIA TRANSITION VELOCITY DIPOLE MOMENTS    
------------------------------------------------------------------------------------------
     Transition      Energy     Energy  Wavelength    R        MX        MY        MZ   
                      (eV)      (cm-1)    (nm)   (1e40*cgs)   (au)      (au)      (au)  
------------------------------------------------------------------------------------------
  0-1A  ->  1-1A    2.492683   20104.8   497.4    0.00000  -0.00000  -0.00000   0.00000
  0-1A  ->  2-1A    4.813769   38825.7   257.6    0.00000   0.06369  -0.00000  -0.00000
  0-1A  ->  3-1A    4.813770   38825.7   257.6    0.00000   0.00000   0.06369   0.00000
  0-1A  ->  4-1A    7.124028   57459.2   174.0    0.00000   0.00000   0.06562   0.00000
  0-1A  ->  5-1A    7.124032   57459.2   174.0    0.00000  -0.06562   0.00000   0.00000
  0-1A  ->  6-1A    8.972706   72369.8   138.2   -0.00000  -0.00000  -0.00000  -0.14036
  0-1A  ->  7-1A    9.597735   77411.0   129.2   -0.00000   0.01581  -0.00000  -0.00000
  0-1A  ->  8-1A    9.597735   77411.0   129.2   -0.00000   0.00000   0.01581   0.00000
  0-1A  ->  9-1A   10.780093   86947.3   115.0   -0.00000  -0.00000  -0.00000   0.00000
  0-1A  -> 10-1A   11.301707   91154.4   109.7    0.00000   0.00000   0.17020  -0.00000

Total run time:        5.960 sec

           *** ORCA-CIS/TD-DFT FINISHED WITHOUT ERROR ***
-----------------------
CIS/TD-DFT TOTAL ENERGY
-----------------------

    E(SCF)  =    -48.865099568 Eh
    DE(CIS) =      0.091604428 Eh (Root  1)
    ----------------------------- ---------
    E(tot)  =    -48.773495140 Eh


------------------------
TD-DFT GRADIENT XC SETUP
------------------------

Building densities                     ... done
Calculating rho(r) on the grid         ... done
Building xc-kernel on the grid         ... done
Building xc 3rd derivative on the grid ... done
                *** TD-DFT GRADIENT CALCULATION INITIALIZED ***

--------------------------
TD-DFT/TDA RELAXED DENSITY
--------------------------

Reference wavefunction             ... RHF
State of interest                  ... 1
Basis dimension                    ... 73
DFT-XC contribution needed         ... YES
RI-approximation                   ... YES
Do Coulomb                         ... YES
Do Exchange                        ... NO
Need Hartree-Fock Exchange         ... NO
facj, facx                         ...  2.000,  0.000
Conventional                       ... NO
Range separation                   ... NO
Triplet state                      ... NO
Spin Flip                          ... NO
CIS-vectors being read from        ... NH3_TDDFT-HFS.cis
 => Number of Vectors found: 10
 => Orbital Window: 1...4 -> 5...72

Reading the CIS file                     ... done
Norm of the CI vector                    ... 1.000000000
Making the CIS (pseudo)densities         ... done
Making operators G(D) and Q(T)           ... (SHARK-ok)done
Transforming the Fock operators          ... done
Making the frozen-core relaxed density   ... done
Constructing the G(H) operator           ... (SHARK-ok)done
Transforming the G(H) operator           ... done
Calculating the CIS Lagrangian           ... done
Solving the Z-vector equations           ... 


-------------------
SHARK CP-SCF DRIVER
-------------------

Dimension of the orbital basis          ...     73
Dimension of the CPSCF-problem          ...    340
Number of operators                     ...      1
Max. number of iterations               ...    128
Convergence Tolerance                   ... 3.0e-05
Number of perturbations                 ...      1
Perturbation type                       ... REAL

----------------------------
POPLE LINEAR EQUATION SOLVER
----------------------------

  ITERATION   0:   ||err||_max =   5.6574e+00 (   0.1 sec)
  ITERATION   1:   ||err||_max =   6.0961e-02 (   0.1 sec)
  ITERATION   2:   ||err||_max =   6.6029e-03 (   0.0 sec)
  ITERATION   3:   ||err||_max =   1.1070e-03 (   0.1 sec)
  ITERATION   4:   ||err||_max =   1.6824e-04 (   0.1 sec)
  ITERATION   5:   ||err||_max =   1.6480e-05 (   0.1 sec)

Finalizing the relaxed density           ... done
Storing the relaxed density              ... done
Constructing the G(Z) operator           ... (SHARK-ok)done
Adding the XC terms                      ... done
Transforming the G(Z) operator           ... done
Making the W-matrix                      ... done
Finalizing the W-matrix                  ... done
Transforming the W-matrix                ... done
Nuc. rep. gradient        (SHARK) ... done (  0.0 sec)
HCore & Overlap gradient  (SHARK) ... done (  0.0 sec)
Split-RIJ-J gradient      (SHARK) ... done (  0.1 sec)

                 ---------------------------
                 EXCITED STATE GRADIENT DONE
                 ---------------------------

------------------
CARTESIAN GRADIENT
------------------

   1   N   :    0.000000000   -0.000003442   -0.191905819
   2   H   :   -0.000000000   -0.219220023    0.063968458
   3   H   :    0.189852351    0.109611732    0.063968681
   4   H   :   -0.189852351    0.109611732    0.063968681

Difference to translation invariance:
           :    0.0000000000    0.0000000000   -0.0000000000

Difference to rotation invariance:
           :    0.0000019477    0.0000000000    0.0000000001

Norm of the Cartesian gradient     ...    0.4396345117
RMS gradient                       ...    0.1269115518
MAX gradient                       ...    0.2192200228

------------------------------------------------------------------------------
                  RELAXED CIS/TDA DENSITY POPULATION ANALYSIS
                                   IROOT 1
------------------------------------------------------------------------------
------------------------------------------------------------------------------
                           ORCA POPULATION ANALYSIS
------------------------------------------------------------------------------
Input electron density              ... NH3_TDDFT-HFS.cispre.singlet.iroot1
BaseName (.gbw .S,...)              ... NH3_TDDFT-HFS

                    ********************************
                    * MULLIKEN POPULATION ANALYSIS *
                    ********************************

-----------------------
MULLIKEN ATOMIC CHARGES
-----------------------
   0 N :    1.050281
   1 H :   -0.350099
   2 H :   -0.350091
   3 H :   -0.350091
Sum of atomic charges:    0.0000000

--------------------------------
MULLIKEN REDUCED ORBITAL CHARGES
--------------------------------
  0 N s       :     2.332263  s :     2.332263
      pz      :     1.289649  p :     3.610965
      px      :     1.160659
      py      :     1.160657
      dz2     :    -0.004144  d :     0.006499
      dxz     :     0.003554
      dyz     :     0.003554
      dx2y2   :     0.001767
      dxy     :     0.001768
      f0      :     0.000061  f :    -0.000007
      f+1     :     0.000047
      f-1     :     0.000047
      f+2     :    -0.000031
      f-2     :    -0.000031
      f+3     :    -0.000000
      f-3     :    -0.000101
  1 H s       :     1.394371  s :     1.394371
      pz      :     0.009293  p :    -0.044895
      px      :     0.013330
      py      :    -0.067517
      dz2     :    -0.000159  d :     0.000623
      dxz     :     0.000093
      dyz     :     0.000865
      dx2y2   :    -0.000911
      dxy     :     0.000735
  2 H s       :     1.394362  s :     1.394362
      pz      :     0.009294  p :    -0.044894
      px      :    -0.047306
      py      :    -0.006882
      dz2     :    -0.000159  d :     0.000623
      dxz     :     0.000672
      dyz     :     0.000286
      dx2y2   :     0.000323
      dxy     :    -0.000500
  3 H s       :     1.394362  s :     1.394362
      pz      :     0.009294  p :    -0.044894
      px      :    -0.047306
      py      :    -0.006882
      dz2     :    -0.000159  d :     0.000623
      dxz     :     0.000672
      dyz     :     0.000286
      dx2y2   :     0.000323
      dxy     :    -0.000500


                     *******************************
                     * LOEWDIN POPULATION ANALYSIS *
                     *******************************

----------------------
LOEWDIN ATOMIC CHARGES
----------------------
   0 N :    0.897185
   1 H :   -0.299063
   2 H :   -0.299061
   3 H :   -0.299061

-------------------------------
LOEWDIN REDUCED ORBITAL CHARGES
-------------------------------
  0 N s       :     2.869013  s :     2.869013
      pz      :     0.876629  p :     3.179267
      px      :     1.151319
      py      :     1.151319
      dz2     :     0.005174  d :     0.050093
      dxz     :     0.006554
      dyz     :     0.006554
      dx2y2   :     0.015905
      dxy     :     0.015906
      f0      :     0.000283  f :     0.004441
      f+1     :     0.000005
      f-1     :     0.000005
      f+2     :     0.001553
      f-2     :     0.001553
      f+3     :     0.000000
      f-3     :     0.001041
  1 H s       :     1.004538  s :     1.004538
      pz      :     0.054287  p :     0.249878
      px      :     0.060806
      py      :     0.134784
      dz2     :     0.005516  d :     0.044647
      dxz     :     0.001605
      dyz     :     0.013310
      dx2y2   :     0.010156
      dxy     :     0.014060
  2 H s       :     1.004538  s :     1.004538
      pz      :     0.054286  p :     0.249877
      px      :     0.116290
      py      :     0.079301
      dz2     :     0.005516  d :     0.044647
      dxz     :     0.010384
      dyz     :     0.004531
      dx2y2   :     0.013084
      dxy     :     0.011132
  3 H s       :     1.004538  s :     1.004538
      pz      :     0.054286  p :     0.249877
      px      :     0.116290
      py      :     0.079301
      dz2     :     0.005516  d :     0.044647
      dxz     :     0.010384
      dyz     :     0.004531
      dx2y2   :     0.013084
      dxy     :     0.011132


                      *****************************
                      * MAYER POPULATION ANALYSIS *
                      *****************************

  NA   - Mulliken gross atomic population
  ZA   - Total nuclear charge
  QA   - Mulliken gross atomic charge
  VA   - Mayer's total valence
  BVA  - Mayer's bonded valence
  FA   - Mayer's free valence

  ATOM       NA         ZA         QA         VA         BVA        FA
  0 N      5.9497     7.0000     1.0503     0.8614     0.9142    -0.0528
  1 H      1.3501     1.0000    -0.3501     1.3132     0.7352     0.5780
  2 H      1.3501     1.0000    -0.3501     1.3132     0.7352     0.5779
  3 H      1.3501     1.0000    -0.3501     1.3132     0.7352     0.5779

  Mayer bond orders larger than 0.100000
B(  0-N ,  1-H ) :   0.3047 B(  0-N ,  2-H ) :   0.3047 B(  0-N ,  3-H ) :   0.3047 
B(  1-H ,  2-H ) :   0.2153 B(  1-H ,  3-H ) :   0.2153 B(  2-H ,  3-H ) :   0.2153 



-------
TIMINGS
-------

Total TD-DFT gradient time  ....        0.962 sec

Fock matrix formation       ....       0.216 sec  ( 22.5%)
  Coulomb formation         ....       0.059 sec  ( 27.3% of F)
  XC integration            ....       0.157 sec  ( 72.7% of F)
Z-vector equation           ....       0.480 sec  ( 49.9%)
One electron gradient       ....       0.009 sec  (  0.9%)
RI-J Coulomb gradient       ....       0.081 sec  (  8.4%)

Maximum memory used throughout the entire CIS-calculation: 14.1 MB
=> NOW LEAVING ORCA_CIS

-------------------------   --------------------
FINAL SINGLE POINT ENERGY       -48.773495139871
-------------------------   --------------------

------------------------------------------------------------------------------
                         ORCA GEOMETRY RELAXATION STEP
------------------------------------------------------------------------------

Reading the OPT-File                    .... done
Getting information on internals        .... done
Copying old internal coords+grads       .... done
Making the new internal coordinates     .... (2022 redundants) done
Validating the new internal coordinates .... (2022 redundants) done
Calculating the B-matrix                .... done
Calculating the G,G- and P matrices     .... done
Transforming gradient to internals      .... done
Projecting the internal gradient        .... done
Number of atoms                         ....   4
Number of internal coordinates          ....   7
Current Energy                          ....   -48.773495140 Eh
Current gradient norm                   ....     0.439634512 Eh/bohr
Maximum allowed component of the step   ....  0.300
Current trust radius                    ....  0.300
Evaluating the initial hessian          ....  (Almloef) done
Projecting the Hessian                  .... done
Forming the augmented Hessian           .... done
Diagonalizing the augmented Hessian     .... done
Last element of RFO vector              ....  0.856892398
Lowest eigenvalues of augmented Hessian:
 -0.237344146  0.111988252  0.302702146  0.303043920  0.430235541
Length of the computed step             ....  0.601586985
Warning: the length of the step is outside the trust region - taking restricted step instead
The input lambda is                     ....     0.108475
   iter:   5  x=    0.101775  g=22893.027092 f(x)=    59.658655
   iter:  10  x=   -0.004675  g=   25.597851 f(x)=     1.549718
   iter:  15  x=   -0.888635  g=    0.163993 f(x)=     0.011658
The output lambda is                    ....    -0.895413 (19 iterations)
The final length of the internal step   ....  0.300000000
Converting the step to Cartesian space:
 Initial RMS(Int)=    0.1133893419
Transforming coordinates:
 Iter   0:  RMS(Cart)=    0.0853627275 RMS(Int)=    0.1133382829
 Iter   5:  RMS(Cart)=    0.0000000296 RMS(Int)=    0.0000000537
done
Storing new coordinates                 .... done

                                .--------------------.
          ----------------------|Geometry convergence|-------------------------
          Item                value                   Tolerance       Converged
          ---------------------------------------------------------------------
          RMS gradient        0.1497263438            0.0000100000      NO
          MAX gradient        0.2272284170            0.0001000000      NO
          RMS step            0.1133893419            0.0000100000      NO
          MAX step            0.1714092674            0.0001000000      NO
          ........................................................
          Max(Bonds)      0.0907      Max(Angles)    1.41
          Max(Dihed)        0.00      Max(Improp)    1.78
          ---------------------------------------------------------------------

The optimization has not yet converged - more geometry cycles are needed


    ---------------------------------------------------------------------------
                         Redundant Internal Coordinates
                            (Angstroem and degrees)

        Definition                    Value    dE/dq     Step     New-Value
    ----------------------------------------------------------------------------
     1. B(H   1,N   0)                1.0116 -0.227225  0.0907    1.1023   
     2. B(H   2,N   0)                1.0116 -0.227228  0.0907    1.1023   
     3. B(H   3,N   0)                1.0116 -0.227228  0.0907    1.1023   
     4. A(H   1,N   0,H   3)          106.84 -0.011247    0.68    107.53   
     5. A(H   2,N   0,H   3)          106.84 -0.028257    1.41    108.25   
     6. A(H   1,N   0,H   2)          106.84 -0.011247    0.68    107.53   
     7. I(H   1,H   3,H   2,N   0)     60.91  0.031265   -1.78     59.12   
    ----------------------------------------------------------------------------

Geometry step timings:
Preparation and reading OPT file:      0.000 s ( 0.000 %)
Internal coordinates            :      0.000 s ( 0.000 %)
B/P matrices and projection     :      0.000 s ( 0.000 %)
Hessian update/contruction      :      0.001 s (50.000 %)
Making the step                 :      0.000 s ( 0.000 %)
Converting the step to Cartesian:      0.000 s ( 0.000 %)
Storing new data                :      0.000 s ( 0.000 %)
Checking convergence            :      0.000 s ( 0.000 %)
Final printing                  :      0.001 s (50.000 %)
Total time                      :      0.002 s

Time for energy+gradient        :      8.872 s
Time for complete geometry iter :      8.928 s

         *************************************************************
         *                GEOMETRY OPTIMIZATION CYCLE   2            *
         *************************************************************
---------------------------------
CARTESIAN COORDINATES (ANGSTROEM)
---------------------------------
  N      0.000000   -0.002242    0.127672
  H     -0.000000    1.025636   -0.270390
  H     -0.893147   -0.511697   -0.269485
  H      0.893147   -0.511697   -0.269485

----------------------------
CARTESIAN COORDINATES (A.U.)
----------------------------
  NO LB      ZA    FRAG     MASS         X           Y           Z
   0 N     7.0000    0    14.007    0.000000   -0.004237    0.241266
   1 H     1.0000    0     1.008   -0.000000    1.938171   -0.510963
   2 H     1.0000    0     1.008   -1.687803   -0.966968   -0.509253
   3 H     1.0000    0     1.008    1.687803   -0.966968   -0.509253

--------------------------------
INTERNAL COORDINATES (ANGSTROEM)
--------------------------------
 N      0   0   0     0.000000000000     0.00000000     0.00000000
 H      1   0   0     1.102264320662     0.00000000     0.00000000
 H      1   2   0     1.102265732222   107.51040830     0.00000000
 H      1   2   3     1.102265732223   107.51040830   116.34802344

---------------------------
INTERNAL COORDINATES (A.U.)
---------------------------
 N      0   0   0     0.000000000000     0.00000000     0.00000000
 H      1   0   0     2.082977693244     0.00000000     0.00000000
 H      1   2   0     2.082980360706   107.51040830     0.00000000
 H      1   2   3     2.082980360707   107.51040830   116.34802344

------------------------------------------------------------------------------
                   ___                                                        
                  /   \      - P O W E R E D   B Y -                         
                 /     \                                                     
                 |  |  |   _    _      __       _____    __    __             
                 |  |  |  | |  | |    /  \     |  _  \  |  |  /  |          
                  \  \/   | |  | |   /    \    | | | |  |  | /  /          
                 / \  \   | |__| |  /  /\  \   | |_| |  |  |/  /          
                |  |  |   |  __  | /  /__\  \  |    /   |      \           
                |  |  |   | |  | | |   __   |  |    \   |  |\   \          
                \     /   | |  | | |  |  |  |  | |\  \  |  | \   \       
                 \___/    |_|  |_| |__|  |__|  |_| \__\ |__|  \__/        
                                                                              
                      - O R C A' S   B I G   F R I E N D -                    
                                      &                                       
                       - I N T E G R A L  F E E D E R -                       
                                                                              
 v1 FN, 2020, v2 2021, v3 2022-2024                                           
------------------------------------------------------------------------------


----------------------
SHARK INTEGRAL PACKAGE
----------------------

Number of atoms                             ...      4
Number of basis functions                   ...     73
Number of shells                            ...     29
Maximum angular momentum                    ...      3
Integral batch strategy                     ... SHARK/LIBINT Hybrid
RI-J (if used) integral strategy            ... SPLIT-RIJ (Revised 2003 algorithm where possible)
Printlevel                                  ...      1
Contraction scheme used                     ... SEGMENTED contraction
Prescreening option                         ... SCHWARTZ
   Thresh                                   ... 1.000e-12
   Tcut                                     ... 1.000e-14
   Tpresel                                  ... 1.000e-14 
Coulomb Range Separation                    ... NOT USED
Exchange Range Separation                   ... NOT USED
Multipole approximations                    ... NOT USED
Finite Nucleus Model                        ... NOT USED
CABS basis                                  ... NOT available
Auxiliary Coulomb fitting basis             ... AVAILABLE
   # of basis functions in Aux-J            ...     82
   # of shells in Aux-J                     ...     30
   Maximum angular momentum in Aux-J        ...      4
Auxiliary J/K fitting basis                 ... NOT available
Auxiliary Correlation fitting basis         ... NOT available
Auxiliary 'external' fitting basis          ... NOT available

Checking pre-screening integrals            ... done (  0.0 sec) Dimension = 29
Check shell pair data                       ... done (  0.0 sec)
Shell pair information
Shell pair cut-off parameter TPreSel        ...   1.0e-14
Total number of shell pairs                 ...       435
Shell pairs after pre-screening             ...       435
Total number of primitive shell pairs       ...      1021
Primitive shell pairs kept                  ...       988
          la=0 lb=0:    105 shell pairs
          la=1 lb=0:    126 shell pairs
          la=1 lb=1:     45 shell pairs
          la=2 lb=0:     70 shell pairs
          la=2 lb=1:     45 shell pairs
          la=2 lb=2:     15 shell pairs
          la=3 lb=0:     14 shell pairs
          la=3 lb=1:      9 shell pairs
          la=3 lb=2:      5 shell pairs
          la=3 lb=3:      1 shell pairs

Calculating one electron integrals          ... done (  0.0 sec)
Calculating RI/J V-Matrix + Cholesky decomp.... done (  0.0 sec)
Calculating Nuclear repulsion               ... done (  0.0 sec) ENN=     10.973222337061 Eh

Diagonalization of the overlap matrix:
Smallest eigenvalue                        ... 1.468e-03
Time for diagonalization                   ...    0.001 sec
Threshold for overlap eigenvalues          ... 1.000e-07
Number of eigenvalues below threshold      ... 0
Time for construction of square roots      ...    0.000 sec
Total time needed                          ...    0.009 sec

-------------------
DFT GRID GENERATION
-------------------

General Integration Accuracy     IntAcc      ... 4.388
Radial Grid Type                 RadialGrid  ... OptM3 with GC (2021)
Angular Grid (max. ang.)         AngularGrid ... 4 (Lebedev-302)
Angular grid pruning method      GridPruning ... 4 (adaptive)
Weight generation scheme         WeightScheme... mBecke (2022)
Basis function cutoff            BFCut       ... 1.0000e-12
Integration weight cutoff        WCut        ... 1.0000e-14
Partially contracted basis set               ... off
Rotationally invariant grid construction     ... off
Angular grids for H and He will be reduced by one unit

Total number of grid points                  ...    16036
Total number of batches                      ...      253
Average number of points per batch           ...       63
Average number of grid points per atom       ...     4009
Initializing property integral containers    ... done (  0.0 sec)

SHARK setup successfully completed in   0.1 seconds

Maximum memory used throughout the entire STARTUP-calculation: 13.8 MB
Occupation numbers will be reassigned to an Aufbau configuration
             **** ENERGY FILE WAS UPDATED (NH3_TDDFT-HFS.en.tmp) ****
[...]
  0-1A  ->  1-1A   -0.558697   -4506.2     0.0   0.000000000   0.00892   0.00000  -0.00055  -0.09443
  0-1A  ->  2-1A    2.212328   17843.6   560.4   0.000009321   0.00000   0.00107  -0.00000   0.00000
  0-1A  ->  3-1A    2.219809   17904.0   558.5   0.000010014   0.00000  -0.00000  -0.00106   0.00033
  0-1A  ->  4-1A    4.584932   36980.0   270.4   0.020690495   0.00523   0.07231   0.00001  -0.00000
  0-1A  ->  5-1A    4.586499   36992.6   270.3   0.020596512   0.00521  -0.00001   0.07216  -0.00042
  0-1A  ->  6-1A    5.923731   47778.1   209.3   0.000000276   0.00000   0.00030   0.00000  -0.00000
  0-1A  ->  7-1A    7.778571   62738.4   159.4   0.286482313   0.12284   0.00002   0.35048  -0.00202
  0-1A  ->  8-1A    7.779073   62742.5   159.4   0.286321697   0.12278  -0.35040   0.00002  -0.00000
  0-1A  ->  9-1A    8.288314   66849.8   149.6   0.040984458   0.01873  -0.00000  -0.00074  -0.13684
  0-1A  -> 10-1A    8.726235   70381.8   142.1   0.000081149   0.00004  -0.00000   0.00046   0.00623

------------------------------------------------------------------------------------------
                     CD SPECTRUM VIA TRANSITION ELECTRIC DIPOLE MOMENTS    
------------------------------------------------------------------------------------------
     Transition      Energy     Energy  Wavelength    R        MX        MY        MZ   
                      (eV)      (cm-1)    (nm)   (1e40*cgs)   (au)      (au)      (au)  
------------------------------------------------------------------------------------------
  0-1A  ->  1-1A   -0.558697   -4506.2     0.0    0.00000   0.00106   0.00000  -0.00000
  0-1A  ->  2-1A    2.212328   17843.6   560.4    0.00000   0.00001   0.31079  -0.00180
  0-1A  ->  3-1A    2.219809   17904.0   558.5   -0.00000   0.30987  -0.00001   0.00000
  0-1A  ->  4-1A    4.584932   36980.0   270.4   -0.00000  -0.00000   0.00593   0.00183
  0-1A  ->  5-1A    4.586499   36992.6   270.3    0.00000  -0.00593  -0.00000  -0.00000
  0-1A  ->  6-1A    5.923731   47778.1   209.3   -0.00000  -0.00000  -0.00268  -0.46527
  0-1A  ->  7-1A    7.778571   62738.4   159.4   -0.00000  -0.00263   0.00000  -0.00000
  0-1A  ->  8-1A    7.779073   62742.5   159.4    0.00000  -0.00000  -0.00261   0.00101
  0-1A  ->  9-1A    8.288314   66849.8   149.6   -0.00000   0.00000  -0.00000   0.00000
  0-1A  -> 10-1A    8.726235   70381.8   142.1    0.00000   0.00003   0.00000   0.00000

------------------------------------------------------------------------------------------
                     CD SPECTRUM VIA TRANSITION VELOCITY DIPOLE MOMENTS    
------------------------------------------------------------------------------------------
     Transition      Energy     Energy  Wavelength    R        MX        MY        MZ   
                      (eV)      (cm-1)    (nm)   (1e40*cgs)   (au)      (au)      (au)  
------------------------------------------------------------------------------------------
  0-1A  ->  1-1A   -0.558697   -4506.2     0.0    0.00000   0.00106   0.00000  -0.00000
  0-1A  ->  2-1A    2.212328   17843.6   560.4   -0.00000   0.00001   0.31079  -0.00180
  0-1A  ->  3-1A    2.219809   17904.0   558.5    0.00000   0.30987  -0.00001   0.00000
  0-1A  ->  4-1A    4.584932   36980.0   270.4   -0.00000  -0.00000   0.00593   0.00183
  0-1A  ->  5-1A    4.586499   36992.6   270.3    0.00000  -0.00593  -0.00000  -0.00000
  0-1A  ->  6-1A    5.923731   47778.1   209.3    0.00000  -0.00000  -0.00268  -0.46527
  0-1A  ->  7-1A    7.778571   62738.4   159.4   -0.00000  -0.00263   0.00000  -0.00000
  0-1A  ->  8-1A    7.779073   62742.5   159.4    0.00000  -0.00000  -0.00261   0.00101
  0-1A  ->  9-1A    8.288314   66849.8   149.6   -0.00000   0.00000  -0.00000   0.00000
  0-1A  -> 10-1A    8.726235   70381.8   142.1    0.00000   0.00003   0.00000   0.00000

Total run time:        4.412 sec

           *** ORCA-CIS/TD-DFT FINISHED WITHOUT ERROR ***
-----------------------
CIS/TD-DFT TOTAL ENERGY
-----------------------

    E(SCF)  =    -48.996894776 Eh
    DE(CIS) =     -0.020531752 Eh (Root  1)
    ----------------------------- ---------
    E(tot)  =    -49.017426529 Eh


------------------------
TD-DFT GRADIENT XC SETUP
------------------------

Building densities                     ... done
Calculating rho(r) on the grid         ... done
Building xc-kernel on the grid         ... done
Building xc 3rd derivative on the grid ... done
                *** TD-DFT GRADIENT CALCULATION INITIALIZED ***

--------------------------
TD-DFT/TDA RELAXED DENSITY
--------------------------

Reference wavefunction             ... RHF
State of interest                  ... 1
Basis dimension                    ... 73
DFT-XC contribution needed         ... YES
RI-approximation                   ... YES
Do Coulomb                         ... YES
Do Exchange                        ... NO
Need Hartree-Fock Exchange         ... NO
facj, facx                         ...  2.000,  0.000
Conventional                       ... NO
Range separation                   ... NO
Triplet state                      ... NO
Spin Flip                          ... NO
CIS-vectors being read from        ... NH3_TDDFT-HFS.cis
 => Number of Vectors found: 10
 => Orbital Window: 1...4 -> 5...72

Reading the CIS file                     ... done
Norm of the CI vector                    ... 1.000000000
Making the CIS (pseudo)densities         ... done
Making operators G(D) and Q(T)           ... (SHARK-ok)done
Transforming the Fock operators          ... done
Making the frozen-core relaxed density   ... done
Constructing the G(H) operator           ... (SHARK-ok)done
Transforming the G(H) operator           ... done
Calculating the CIS Lagrangian           ... done
Solving the Z-vector equations           ... 


-------------------
SHARK CP-SCF DRIVER
-------------------

Dimension of the orbital basis          ...     73
Dimension of the CPSCF-problem          ...    340
Number of operators                     ...      1
Max. number of iterations               ...    128
Convergence Tolerance                   ... 3.0e-05
Number of perturbations                 ...      1
Perturbation type                       ... REAL

----------------------------
POPLE LINEAR EQUATION SOLVER
----------------------------

  ITERATION   0:   ||err||_max =   1.1899e+01 (   0.1 sec)
  ITERATION   1:   ||err||_max =   1.1871e-01 (   0.1 sec)
  ITERATION   2:   ||err||_max =   1.0650e-01 (   0.0 sec)
  ITERATION   3:   ||err||_max =   6.0682e-02 (   0.0 sec)
  ITERATION   4:   ||err||_max =   8.9418e-03 (   0.1 sec)
  ITERATION   5:   ||err||_max =   7.6243e-04 (   0.1 sec)
  ITERATION   6:   ||err||_max =   1.3465e-04 (   0.1 sec)
  ITERATION   7:   ||err||_max =   2.5957e-05 (   0.1 sec)

Finalizing the relaxed density           ... done
Storing the relaxed density              ... done
Constructing the G(Z) operator           ... (SHARK-ok)done
Adding the XC terms                      ... done
Transforming the G(Z) operator           ... done
Making the W-matrix                      ... done
Finalizing the W-matrix                  ... done
Transforming the W-matrix                ... done
Nuc. rep. gradient        (SHARK) ... done (  0.0 sec)
HCore & Overlap gradient  (SHARK) ... done (  0.0 sec)
Split-RIJ-J gradient      (SHARK) ... done (  0.1 sec)

                 ---------------------------
                 EXCITED STATE GRADIENT DONE
                 ---------------------------

------------------
CARTESIAN GRADIENT
------------------

   1   N   :   -0.000000010    0.000411913    0.021192879
   2   H   :    0.000000003   -0.004622539   -0.007050648
   3   H   :    0.003826498    0.002105313   -0.007071115
   4   H   :   -0.003826491    0.002105313   -0.007071115

Difference to translation invariance:
           :   -0.0000000000   -0.0000000000    0.0000000000

Difference to rotation invariance:
           :    0.0000048104    0.0000000007    0.0000000011

Norm of the Cartesian gradient     ...    0.0256619849
RMS gradient                       ...    0.0074079769
MAX gradient                       ...    0.0211928793

------------------------------------------------------------------------------
                  RELAXED CIS/TDA DENSITY POPULATION ANALYSIS
                                   IROOT 1
------------------------------------------------------------------------------
------------------------------------------------------------------------------
                           ORCA POPULATION ANALYSIS
------------------------------------------------------------------------------
Input electron density              ... NH3_TDDFT-HFS.cispre.singlet.iroot1
BaseName (.gbw .S,...)              ... NH3_TDDFT-HFS

-------
TIMINGS
-------

Total TD-DFT gradient time  ....        0.982 sec

Fock matrix formation       ....       0.156 sec  ( 15.9%)
  Coulomb formation         ....       0.048 sec  ( 30.8% of F)
  XC integration            ....       0.108 sec  ( 69.2% of F)
Z-vector equation           ....       0.547 sec  ( 55.7%)
One electron gradient       ....       0.009 sec  (  0.9%)
RI-J Coulomb gradient       ....       0.063 sec  (  6.4%)

Maximum memory used throughout the entire CIS-calculation: 23.5 MB
=> NOW LEAVING ORCA_CIS

-------------------------   --------------------
FINAL SINGLE POINT ENERGY       -49.017426528868
-------------------------   --------------------

------------------------------------------------------------------------------
                         ORCA GEOMETRY RELAXATION STEP
------------------------------------------------------------------------------

Reading the OPT-File                    .... done
Getting information on internals        .... done
Copying old internal coords+grads       .... done
Making the new internal coordinates     .... (2022 redundants) done
Validating the new internal coordinates .... (2022 redundants) done
Calculating the B-matrix                .... done
Calculating the G,G- and P matrices     .... done
Transforming gradient to internals      .... done
Projecting the internal gradient        .... done
Number of atoms                         ....   4
Number of internal coordinates          ....   7
Current Energy                          ....   -49.017426529 Eh
Current gradient norm                   ....     0.025661985 Eh/bohr
Maximum allowed component of the step   ....  0.300
Current trust radius                    ....  0.100
Updating the Hessian (BFGS)             .... done
Forming the augmented Hessian           .... done
Diagonalizing the augmented Hessian     .... done
Last element of RFO vector              ....  0.967492791
Lowest eigenvalues of augmented Hessian:
 -0.001892051  0.027580301  0.151392701  0.302702146  0.411677816
Length of the computed step             ....  0.261395843
Warning: the length of the step is outside the trust region - taking restricted step instead
The input lambda is                     ....     0.024697
   iter:   5  x=    0.018125  g=  804.060442 f(x)=     2.022798
   iter:  10  x=   -0.023534  g=    2.277963 f(x)=     0.030741
   iter:  15  x=   -0.046509  g=    0.276406 f(x)=     0.000000
The output lambda is                    ....    -0.046509 (17 iterations)
The final length of the internal step   ....  0.100000000
Converting the step to Cartesian space:
 Initial RMS(Int)=    0.0377964473
Transforming coordinates:
 Iter   0:  RMS(Cart)=    0.0289904433 RMS(Int)=    0.0377981540
done
Storing new coordinates                 .... done
The predicted energy change is          ....    -0.000595680
Previously predicted energy change      ....    -0.000816481
Actually observed energy change         ....    -0.001146963
Ratio of predicted to observed change   ....     1.404763893
New trust radius                        ....     0.100000000

                                .--------------------.
          ----------------------|Geometry convergence|-------------------------
          Item                value                   Tolerance       Converged
          ---------------------------------------------------------------------
          Energy change      -0.0011469630            0.0000010000      NO
          RMS gradient        0.0087944086            0.0000100000      NO
          MAX gradient        0.0219551675            0.0001000000      NO
          RMS step            0.0377964473            0.0000100000      NO
          MAX step            0.0625928117            0.0001000000      NO
          ........................................................
          Max(Bonds)      0.0331      Max(Angles)    0.30
          Max(Dihed)        0.00      Max(Improp)    0.11
          ---------------------------------------------------------------------

The optimization has not yet converged - more geometry cycles are needed


    ---------------------------------------------------------------------------
                         Redundant Internal Coordinates
                            (Angstroem and degrees)

        Definition                    Value    dE/dq     Step     New-Value
    ----------------------------------------------------------------------------
     1. B(H   1,N   0)                1.6405 -0.004576  0.0331    1.6737   
     2. B(H   2,N   0)                1.6443 -0.004381  0.0291    1.6733   
     3. B(H   3,N   0)                1.6443 -0.004381  0.0291    1.6734   
     4. A(H   1,N   0,H   3)          120.02  0.000048    0.17    120.19   
     5. A(H   2,N   0,H   3)          119.96 -0.000156   -0.30    119.66   
     6. A(H   1,N   0,H   2)          120.02  0.000048    0.17    120.19   
     7. I(H   1,H   3,H   2,N   0)      0.14  0.021955    0.11      0.24   
    ----------------------------------------------------------------------------

Geometry step timings:
Preparation and reading OPT file:      0.002 s (50.000 %)
Internal coordinates            :      0.000 s ( 0.000 %)
B/P matrices and projection     :      0.000 s ( 0.000 %)
Hessian update/contruction      :      0.001 s (25.000 %)
Making the step                 :      0.000 s ( 0.000 %)
Converting the step to Cartesian:      0.000 s ( 0.000 %)
Storing new data                :      0.000 s ( 0.000 %)
Checking convergence            :      0.000 s ( 0.000 %)
Final printing                  :      0.001 s (25.000 %)
Total time                      :      0.004 s

Time for energy+gradient        :      7.140 s
Time for complete geometry iter :      7.189 s




    ----------------------------------------------------------------------------
                                   ERROR !!!
       The optimization did not converge but reached the maximum 
       number of optimization cycles.
       As a subsequent Frequencies calculation has been requested
       ORCA will abort at this point of the run.
       Please restart the calculation with the lowest energy geometry and/or
       a larger maxiter for the geometry optimization.
    ----------------------------------------------------------------------------



--------------------------------
SUGGESTED CITATIONS FOR THIS RUN
--------------------------------

Below you find a list of papers that are relevant to this ORCA run
We neither can nor want to force you to cite these papers, but we appreciate if you do
You receive ORCA, which is the product of decades of hard work by many enthusiastic individuals, for free
The only thing we kindly ask in return is that you cite our papers,
We deeply appreciate it, if you show your appreciation for ORCA by not just citing the generic ORCA reference.

Please note that relegating all ORCA citations to the supporting information does *not* help us.
SI sections are not indexed - citations you put there will not count into any citation statistics
But we need these citations in order to attract the funding resources that allow us to do what we are doing

Therefore, if you are a happy ORCA user, please consider citing a few of the papers listed below in the main body of your paper

In addition to the list printed below, the program has created the file NH3_TDDFT-HFS.bibtex that contains the list in bibtex format
You can import this file easily into all common literature databanks and citation aid programs


List of essential papers. We consider these as the minimum necessary citations

  1. Neese,F.
     Software update: the ORCA program system, version 5.0
     WIRES Comput. Molec. Sci., 2022 12(1)e1606
     doi.org/10.1002/wcms.1606

List of papers to cite with high priority. The work reported in these papers was absolutely
necessary for this run to complete.
Our perspective: the developers of density functionals and basis sets usually get cited in chemistry papers
Good! But without the algorithms to do something with them, the functionals or basis sets would not do anything.
Hence, in our opinion, the algorithm design and method developments papers are equally worthy of getting cited

  1. Neese,F.; Olbrich,G.
     Efficient use of the resolution of the identity approximation in time-dependent density functional calculations with hybrid density functionals
     Chem. Phys. Lett., 2002 362 170-178
     doi.org/10.1016/s0009-2614(02)01053-9
  2. Neese,F.
     An improvement of the resolution of the identity approximation for the formation of the Coulomb matrix
     J. Comp. Chem., 2003 24(14)1740-1747
     doi.org/10.1002/jcc.10318
  3. Petrenko,T.; Kossmann,S.; Neese,F.
     Efficient time-dependent density functional theory approximations for hybrid density functionals: Analytical gradients and parallelization
     J. Chem. Phys., 2011 134 054116
     doi.org/10.1063/1.3533441
  4. Bykov,D.; Petrenko,T.; Izsak,R.; Kossmann,S.; Becker,U.; Valeev,E.; Neese,F.
     Efficient implementation of the analytic second derivatives of Hartree-Fock and hybrid DFT energies: a detailed analysis of different approximations
     Molec. Phys., 2015 113 1961-1977
     doi.org/10.1080/00268976.2015.1025114
  5. Neese,F.
     The SHARK Integral Generation and Digestion System
     J. Comp. Chem., 2022  1-16
     doi.org/10.1002/jcc.26942

List of suggested additional citations. These are papers that are important in the 'surrounding' of 
of this run, or papers that preceded the highly important papers. If you like your results we are grateful for a citation.

  1. Neese,F.
     The ORCA program system
     WIRES Comput. Molec. Sci., 2012 2(1)73-78
     doi.org/10.1002/wcms.81
  2. Neese,F.
     Software update: the ORCA program system, version 4.0
     WIRES Comput. Molec. Sci., 2018 8(1)1-6
     doi.org/10.1002/wcms.1327
  3. Neese,F.; Wennmohs,F.; Becker,U.; Riplinger,C.
     The ORCA quantum chemistry program package
     J. Chem. Phys., 2020 152 Art. No. L224108
     doi.org/10.1063/5.0004608

List of optional additional citations

  1. Neese,F.
     Approximate second-order SCF convergence for spin unrestricted wavefunctions
     Chem. Phys. Lett., 2000 325(1-3)93-98
     doi.org/10.1016/s0009-2614(00)00662-x

Timings for individual modules:

Sum of individual times          ...      372.412 sec (=   6.207 min)
Startup calculation              ...        7.534 sec (=   0.126 min)   2.0 %
SCF iterations                   ...       64.435 sec (=   1.074 min)  17.3 %
Property integrals               ...        4.156 sec (=   0.069 min)   1.1 %
CIS module                       ...      295.765 sec (=   4.929 min)  79.4 %
Geometry relaxation              ...        0.522 sec (=   0.009 min)   0.1 %
                             ****ORCA TERMINATED NORMALLY****
TOTAL RUN TIME: 0 days 0 hours 6 minutes 16 seconds 111 msec
