
                                 *****************
                                 * O   R   C   A *
                                 *****************

                                            #,                                       
                                            ###                                      
                                            ####                                     
                                            #####                                    
                                            ######                                   
                                           ########,                                 
                                     ,,################,,,,,                         
                               ,,#################################,,                 
                          ,,##########################################,,             
                       ,#########################################, ''#####,          
                    ,#############################################,,   '####,        
                  ,##################################################,,,,####,       
                ,###########''''           ''''###############################       
              ,#####''   ,,,,##########,,,,          '''####'''          '####       
            ,##' ,,,,###########################,,,                        '##       
           ' ,,###''''                  '''############,,,                           
         ,,##''                                '''############,,,,        ,,,,,,###''
      ,#''                                            '''#######################'''  
     '                                                          ''''####''''         
             ,#######,   #######,   ,#######,      ##                                
            ,#'     '#,  ##    ##  ,#'     '#,    #''#        ,####,   ,####,        
            ##       ##  ##   ,#'  ##            #'  '#       #'       #'  '#        
            ##       ##  #######   ##           ,######,      #####,   #    #        
            '#,     ,#'  ##    ##  '#,     ,#' ,#      #,     #,   #   #,  ,#        
             '#######'   ##     ##  '#######'  #'      '#     '####' # '####'        



                #########################################################
                #                        -***-                          #
                #          Department of theory and spectroscopy        #
                #                                                       #
                #                      Frank Neese                      #
                #                                                       #
                #     Directorship, Architecture, Infrastructure        #
                #                    SHARK, DRIVERS                     #
                #        Core code/Algorithms in most modules           #
                #                                                       #
                #        Max Planck Institute fuer Kohlenforschung      #
                #                Kaiser Wilhelm Platz 1                 #
                #                 D-45470 Muelheim/Ruhr                 #
                #                      Germany                          #
                #                                                       #
                #                  All rights reserved                  #
                #                        -***-                          #
                #########################################################


                         Program Version 6.0.1  -  RELEASE   -


 With contributions from (in alphabetic order):
[Max-Planck-Institut fuer Kohlenforschung]                               
  Daniel Aravena         : Magnetic Suceptibility                        
  Michael Atanasov       : Ab Initio Ligand Field Theory (pilot matlab implementation)
  Alexander A. Auer      : GIAO ZORA, VPT2 properties, NMR spectrum      
  Ute Becker             : All parallelization in ORCA, NUMFREQ, NUMCALC 
  Giovanni Bistoni       : ED, misc. LED, open-shell LED, HFLD           
  Martin Brehm           : Molecular dynamics                            
  Dmytro Bykov           : pre 5.0 version of the SCF Hessian            
  Marcos Casanova-Páez   : Triplet and SCS-CIS(D). UHF-(DLPNO)-IP/EA/STEOM-CCSD. UHF-CVS-IP/STEOM-CCSD   
  Vijay G. Chilkuri      : MRCI spin determinant printing, contributions to CSF-ICE 
  Pauline Colinet        : FMM embedding                                 
  Dipayan Datta          : RHF DLPNO-CCSD density                        
  Achintya Kumar Dutta   : EOM-CC, STEOM-CC                              
  Nicolas Foglia         : Exact transition moments, OPA infrastructure, MCD improvements    
  Dmitry Ganyushin       : Spin-Orbit,Spin-Spin,Magnetic field MRCI      
  Miquel Garcia-Rates    : C-PCM and meta-GGA Hessian, CCSD/C-PCM, Gaussian charge scheme 
  Tiago L. C. Gouveia    : GS-ROHF, GS-ROCIS                             
  Yang Guo               : DLPNO-NEVPT2, F12-NEVPT2, CIM, IAO-localization        
  Andreas Hansen         : Spin unrestricted coupled pair/coupled cluster methods 
  Ingolf Harden          : AUTO-CI MPn and infrastructure                
  Benjamin Helmich-Paris : MC-RPA, TRAH-(SCF,CASSCF), AVAS, COSX integrals, SCF dyn. polar. 
  Lee Huntington         : MR-EOM, pCC                                   
  Robert Izsak           : Overlap fitted RIJCOSX, COSX-SCS-MP3, EOM     
  Riya Kayal             : Wick's Theorem for AUTO-CI, AUTO-CI UHF-CCSDT 
  Emily Kempfer          : AUTO-CI, RHF CISDT and CCSDT                  
  Christian Kollmar      : KDIIS, OOCD, Brueckner-CCSD(T), CCSD density, CASPT2, CASPT2-K, improved NEVPT2 
  Axel Koslowski         : Symmetry handling                             
  Simone Kossmann        : meta-GGA functionals, TD-DFT gradient, OOMP2, (MP2 Hessian; deprecated post 5.0) 
  Lucas Lang             : DCDCAS                                        
  Marvin Lechner         : AUTO-CI (C++ implementation), FIC-MRCC        
  Spencer Leger          : CASSCF response                               
  Dagmar Lenk            : GEPOL surface, SMD, ORCA-2-JSON               
  Dimitrios Liakos       : Extrapolation schemes; Compound Job, initial MDCI parallelization 
  Dimitrios Manganas     : Further ROCIS development; embedding schemes. LFT, Crystal Embedding 
  Dimitrios Pantazis     : SARC Basis sets                               
  Anastasios Papadopoulos: AUTO-CI, single reference methods and gradients 
  Taras Petrenko         : pre 6.0 DFT Hessian and TD-DFT gradient, (ASA, deprecated), ECA, 1-Electron XAS/XES, NRVS 
  Peter Pinski           : DLPNO-MP2, DLPNO-MP2 Gradient                 
  Christoph Reimann      : Effective Core Potentials                     
  Marius Retegan         : Local ZFS, SOC                                
  Christoph Riplinger    : Optimizer, TS searches, QM/MM, DLPNO-CCSD(T), (RO)-DLPNO pert. Triples 
  Michael Roemelt        : Original ROCIS implementation                 
  Masaaki Saitow         : Open-shell DLPNO-CCSD energy and density      
  Barbara Sandhoefer     : DKH picture change effects                    
  Kantharuban Sivalingam : CASSCF convergence/infrastructure, NEVPT2 and variants, FIC-MRCI 
  Bernardo de Souza      : ESD, SOC TD-DFT                               
  Georgi L. Stoychev     : AutoAux, RI-MP2 NMR, DLPNO-MP2 response, X2C  
  Van Anh Tran           : RI-MP2 g-tensors                              
  Willem Van den Heuvel  : Paramagnetic NMR                              
  Zikuan Wang            : NOTCH, Electric field optimization            
  Frank Wennmohs         : Technical directorship and infrastructure     
  Hang Xu                : AUTO-CI-Response properties                   
                                                                         
[FACCTs GmbH]                                                            
  Markus Bursch, Miquel Garcia-Rates, Christoph Riplinger, Bernardo de Souza, Georgi L. Stoychev 
                                                                 
  APM, Basis sets (HGBS, AHGBS, def-TZVP (Ac-Lr), def2-XVPD (La-Lu)), CI-OPT, improved COSX, DLPNO-Multilevel,           
  DOCKER, DRACO, updates on ESD, GOAT, IRC, LR-CPCM, MBIS, meta-GGA TD-DFT gradient, ML-optimized integration grids, 
  MM, NACMEs, nearIR, NEB, NEB-TS, NL-DFT gradient (VV10), 2- and 3-layer-ONIOM, interface openCOSMO-RS, QMMM,   
  Crystal-QMMM, SF, symmetry and pop. for TD-DFT, r2SCAN hybrids, SOLVATOR                                   
                                                                         
[Other institutions]                                                     
  V. Asgeirsson          : NEB                                           
  Christoph Bannwarth    : sTDA-DFT, sTD-DFT, PBEh-3c, B97-3c, D3        
  Sebastian Ehlert       : rSCAN, r2SCAN, r2SCAN-3c, D4, dhf basis sets  
  Marvin Friede          : D4 for Fr, Ra, Ac-Lr                          
  Lars Goerigk           : TD-DFT with DH, B97 family of functionals     
  Stefan Grimme          : VdW corrections, initial TS optimization, DFT functionals, gCP, sTDA/sTD-DF 
  Waldemar Hujo          : DFT-NL                                        
  H. Jonsson             : NEB                                           
  Holger Kruse           : gCP                                           
  Marcel Mueller         : wB97X-3c, vDZP basis set                      
  Hagen Neugebauer       : wr2SCAN                                       
  Tobias Risthaus        : range-separated hybrid DFT                    
  Lukas Wittmann         : regularized MP2, r2SCAN double-hybrids, wr2SCAN        
                                                                         
We gratefully acknowledge several colleagues who have allowed us to      
interface, adapt or use parts of their codes:                            
  Ed Valeev, F. Pavosevic, A. Kumar             : LibInt (2-el integral package), F12 methods 
  Garnet Chan, S. Sharma, J. Yang, R. Olivares  : DMRG                   
  Ulf Ekstrom                                   : XCFun DFT Library      
  Mihaly Kallay                                 : mrcc  (arbitrary order and MRCC methods)
  Frank Weinhold                                : gennbo (NPA and NBO analysis)           
  Simon Mueller                                 : openCOSMO-RS                            
  Christopher J. Cramer and Donald G. Truhlar   : smd solvation model                     
  S Lehtola, MJT Oliveira, MAL Marques          : LibXC Library                           
  Liviu Ungur et al                             : ANISO software                          


 Your calculation uses the libint2 library for the computation of 2-el integrals
 For citations please refer to: http://libint.valeyev.net

 Your ORCA version has been built with support for libXC version: 6.2.2
 For citations please refer to: https://libxc.gitlab.io

 This ORCA versions uses:
   CBLAS   interface :  Fast vector & matrix operations
   LAPACKE interface :  Fast linear algebra routines
   Shared memory     :  Shared parallel matrices


NOTE: MaxCore=4000 MB was set to SCF,MP2,MDCI,CIPSI,MRCI and CIS
      => If you want to overwrite this, your respective input block should be placed after the MaxCore statement
Warning: RI is on but no J-basis has been assigned. Assigning Def2/J (nothing to worry about!)
================================================================================

----- Orbital basis set information -----
Your calculation utilizes the basis: def2-TZVPP
   F. Weigend and R. Ahlrichs, Phys. Chem. Chem. Phys. 7, 3297 (2005).

----- AuxJ basis set information -----
Your calculation utilizes the auxiliary basis: def2/J
   F. Weigend, Phys. Chem. Chem. Phys. 8, 1057 (2006).

================================================================================
                                        WARNINGS
                       Please study these warnings very carefully!
================================================================================


WARNING: Analytical and numerical frequencies both set to true
  ===> : Disabling Anfreq
INFO   : Checking CIS options ...

WARNING: Geometry Optimization
  ===> : Switching off AutoStart
         For restart on a previous wavefunction, please use MOREAD

WARNING: CIS/ROCIS methods need fully converged wavefunctions
  ===> : Setting SCFConvForced true
         You can overwrite this default with %scf ConvForced false 


================================================================================
                                       INPUT FILE
================================================================================
NAME = NH3_TDDFT-LDA.inp
|  1> ! LDA def2-TZVPP Opt TightOpt VeryTightSCF
|  2> 
|  3> 
|  4> ! Freq
|  5> ! NumFreq
|  6> 
|  7> %scf
|  8>    MaxIter 400          # Máximo de iteraciones permitidas para el SCF
|  9> end
| 10> 
| 11> %geom
| 12>    TolRMSD 1.0e-5
| 13>    TolMAXD 1.0e-4
| 14>    TolRMSG 1.0e-5
| 15>    TolMAXG 1.0e-4
| 16> end
| 17> 
| 18> 
| 19> %tddft
| 20>   nroots 10
| 21> end
| 22> 
| 23> %pal
| 24>    nprocs 1
| 25> end
| 26> 
| 27> 
| 28> %MaxCore 4000            # Memoria máxima por núcleo (en MB)
| 29> 
| 30> * xyz 0 1
| 31> N       0.00000000    0.00000000    0.11361500
| 32> H       0.00000000    0.93799100   -0.26510100
| 33> H      -0.81232400   -0.46899600   -0.26510100
| 34> H       0.81232400   -0.46899600   -0.26510100
| 35> **                         ****END OF INPUT****
================================================================================

                       *****************************
                       * Geometry Optimization Run *
                       *****************************

Geometry optimization settings:
Update method            Update   .... BFGS
Choice of coordinates    CoordSys .... (2022) Redundant Internals
Initial Hessian          InHess   .... Almloef's Model
Max. no of cycles        MaxIter  .... 50

Convergence Tolerances:
Energy Change            TolE     ....  1.0000e-06 Eh
Max. Gradient            TolMAXG  ....  1.0000e-04 Eh/bohr
RMS Gradient             TolRMSG  ....  1.0000e-05 Eh/bohr
Max. Displacement        TolMAXD  ....  1.0000e-04 bohr
RMS Displacement         TolRMSD  ....  1.0000e-05 bohr
Strict Convergence                .... False

------------------------------------------------------------------------------
                        ORCA OPTIMIZATION COORDINATE SETUP
------------------------------------------------------------------------------

The optimization will be done in redundant internal coordinates (2022)
Making redundant internal coordinates   ...  (2022 redundants) done
Evaluating the initial hessian          ...  (Almloef) done
Evaluating the coordinates              ...  done
Calculating the B-matrix                .... done
Calculating the G-matrix                .... done
Diagonalizing the G-matrix              .... done
The first mode is                       ....    1
The number of degrees of freedom        ....    6

    -----------------------------------------------------------------
                    Redundant Internal Coordinates


    -----------------------------------------------------------------
         Definition                    Initial Value    Approx d2E/dq
    -----------------------------------------------------------------
      1. B(H   1,N   0)                  1.0116         0.430236   
      2. B(H   2,N   0)                  1.0116         0.430236   
      3. B(H   3,N   0)                  1.0116         0.430236   
      4. A(H   1,N   0,H   3)          106.8430         0.302702   
      5. A(H   2,N   0,H   3)          106.8430         0.302702   
      6. A(H   1,N   0,H   2)          106.8430         0.302702   
      7. I(H   1,H   3,H   2,N   0)     60.9075         0.003864   
    -----------------------------------------------------------------

Number of atoms                         .... 4
Number of degrees of freedom            .... 7


         *************************************************************
         *                GEOMETRY OPTIMIZATION CYCLE   1            *
         *************************************************************
---------------------------------
CARTESIAN COORDINATES (ANGSTROEM)
---------------------------------
  N      0.000000    0.000000    0.113615
  H      0.000000    0.937991   -0.265101
  H     -0.812324   -0.468996   -0.265101
  H      0.812324   -0.468996   -0.265101

----------------------------
CARTESIAN COORDINATES (A.U.)
----------------------------
  NO LB      ZA    FRAG     MASS         X           Y           Z
   0 N     7.0000    0    14.007    0.000000    0.000000    0.214701
   1 H     1.0000    0     1.008    0.000000    1.772546   -0.500968
   2 H     1.0000    0     1.008   -1.535070   -0.886274   -0.500968
   3 H     1.0000    0     1.008    1.535070   -0.886274   -0.500968

--------------------------------
INTERNAL COORDINATES (ANGSTROEM)
--------------------------------
 N      0   0   0     0.000000000000     0.00000000     0.00000000
 H      1   0   0     1.011559649619     0.00000000     0.00000000
 H      1   2   0     1.011559853715   106.84302597     0.00000000
 H      1   2   3     1.011559853715   106.84302597   114.07643751

---------------------------
INTERNAL COORDINATES (A.U.)
---------------------------
 N      0   0   0     0.000000000000     0.00000000     0.00000000
 H      1   0   0     1.911570705905     0.00000000     0.00000000
 H      1   2   0     1.911571091591   106.84302597     0.00000000
 H      1   2   3     1.911571091591   106.84302597   114.07643751

---------------------
BASIS SET INFORMATION
---------------------
There are 2 groups of distinct atoms

 Group   1 Type N   : 11s6p2d1f contracted to 5s3p2d1f pattern {62111/411/11/1}
 Group   2 Type H   : 5s2p1d contracted to 3s2p1d pattern {311/11/1}

Atom   0N    basis set group =>   1
Atom   1H    basis set group =>   2
Atom   2H    basis set group =>   2
Atom   3H    basis set group =>   2
---------------------------------
AUXILIARY/J BASIS SET INFORMATION
---------------------------------
There are 2 groups of distinct atoms

 Group   1 Type N   : 12s5p4d2f1g contracted to 6s4p3d1f1g pattern {711111/2111/211/2/1}
 Group   2 Type H   : 5s2p1d contracted to 3s1p1d pattern {311/2/1}

Atom   0N    basis set group =>   1
Atom   1H    basis set group =>   2
Atom   2H    basis set group =>   2
Atom   3H    basis set group =>   2
------------------------------------------------------------------------------
                             ORCA STARTUP CALCULATIONS
                           -- RI-GTO INTEGRALS CHOSEN --
------------------------------------------------------------------------------
------------------------------------------------------------------------------
                   ___                                                        
                  /   \      - P O W E R E D   B Y -                         
                 /     \                                                     
                 |  |  |   _    _      __       _____    __    __             
                 |  |  |  | |  | |    /  \     |  _  \  |  |  /  |          
                  \  \/   | |  | |   /    \    | | | |  |  | /  /          
                 / \  \   | |__| |  /  /\  \   | |_| |  |  |/  /          
                |  |  |   |  __  | /  /__\  \  |    /   |      \           
                |  |  |   | |  | | |   __   |  |    \   |  |\   \          
                \     /   | |  | | |  |  |  |  | |\  \  |  | \   \       
                 \___/    |_|  |_| |__|  |__|  |_| \__\ |__|  \__/        
                                                                              
                      - O R C A' S   B I G   F R I E N D -                    
                                      &                                       
                       - I N T E G R A L  F E E D E R -                       
                                                                              
 v1 FN, 2020, v2 2021, v3 2022-2024                                           
------------------------------------------------------------------------------


----------------------
SHARK INTEGRAL PACKAGE
----------------------

Number of atoms                             ...      4
Number of basis functions                   ...     73
Number of shells                            ...     29
Maximum angular momentum                    ...      3
Integral batch strategy                     ... SHARK/LIBINT Hybrid
RI-J (if used) integral strategy            ... SPLIT-RIJ (Revised 2003 algorithm where possible)
Printlevel                                  ...      1
Contraction scheme used                     ... SEGMENTED contraction
Prescreening option                         ... SCHWARTZ
   Thresh                                   ... 1.000e-12
   Tcut                                     ... 1.000e-14
   Tpresel                                  ... 1.000e-14 
Coulomb Range Separation                    ... NOT USED
Exchange Range Separation                   ... NOT USED
Multipole approximations                    ... NOT USED
Finite Nucleus Model                        ... NOT USED
CABS basis                                  ... NOT available
Auxiliary Coulomb fitting basis             ... AVAILABLE
   # of basis functions in Aux-J            ...     82
   # of shells in Aux-J                     ...     30
   Maximum angular momentum in Aux-J        ...      4
Auxiliary J/K fitting basis                 ... NOT available
Auxiliary Correlation fitting basis         ... NOT available
Auxiliary 'external' fitting basis          ... NOT available

Checking pre-screening integrals            ... done (  0.0 sec) Dimension = 29
Check shell pair data                       ... done (  0.0 sec)
Shell pair information
Shell pair cut-off parameter TPreSel        ...   1.0e-14
Total number of shell pairs                 ...       435
Shell pairs after pre-screening             ...       435
Total number of primitive shell pairs       ...      1021
Primitive shell pairs kept                  ...       991
          la=0 lb=0:    105 shell pairs
          la=1 lb=0:    126 shell pairs
          la=1 lb=1:     45 shell pairs
          la=2 lb=0:     70 shell pairs
          la=2 lb=1:     45 shell pairs
          la=2 lb=2:     15 shell pairs
          la=3 lb=0:     14 shell pairs
          la=3 lb=1:      9 shell pairs
          la=3 lb=2:      5 shell pairs
          la=3 lb=3:      1 shell pairs

Calculating one electron integrals          ... done (  0.0 sec)
Calculating RI/J V-Matrix + Cholesky decomp.... done (  0.0 sec)
Calculating Nuclear repulsion               ... done (  0.0 sec) ENN=     11.962882715546 Eh

Diagonalization of the overlap matrix:
Smallest eigenvalue                        ... 8.866e-04
Time for diagonalization                   ...    0.000 sec
Threshold for overlap eigenvalues          ... 1.000e-07
Number of eigenvalues below threshold      ... 0
Time for construction of square roots      ...    0.001 sec
Total time needed                          ...    0.008 sec

-------------------
DFT GRID GENERATION
-------------------

General Integration Accuracy     IntAcc      ... 4.388
Radial Grid Type                 RadialGrid  ... OptM3 with GC (2021)
Angular Grid (max. ang.)         AngularGrid ... 4 (Lebedev-302)
Angular grid pruning method      GridPruning ... 4 (adaptive)
Weight generation scheme         WeightScheme... mBecke (2022)
Basis function cutoff            BFCut       ... 1.0000e-12
Integration weight cutoff        WCut        ... 1.0000e-14
Partially contracted basis set               ... off
Rotationally invariant grid construction     ... off
Angular grids for H and He will be reduced by one unit

Total number of grid points                  ...    16020
Total number of batches                      ...      252
Average number of points per batch           ...       63
Average number of grid points per atom       ...     4005
Initializing property integral containers    ... done (  0.0 sec)

SHARK setup successfully completed in   0.1 seconds

Maximum memory used throughout the entire STARTUP-calculation: 13.7 MB
-------------------------------------------------------------------------------
                                 ORCA GUESS
                   Start orbitals & Density for SCF / CASSCF
-------------------------------------------------------------------------------

------------
SCF SETTINGS
------------
Hamiltonian:
 Density Functional     Method          .... DFT(GTOs)
 Exchange Functional    Exchange        .... Slater
   X-Alpha parameter    XAlpha          ....  0.666667
 Correlation Functional Correlation     .... VWN-5
 Gradients option       PostSCFGGA      .... off
 RI-approximation to the Coulomb term is turned on
   Number of AuxJ basis functions       .... 82


General Settings:
 Integral files         IntName         .... NH3_TDDFT-LDA
 Hartree-Fock type      HFTyp           .... RHF
 Total Charge           Charge          ....    0
 Multiplicity           Mult            ....    1
 Number of Electrons    NEL             ....   10
 Basis Dimension        Dim             ....   73
 Nuclear Repulsion      ENuc            ....     11.9628827155 Eh

Convergence Acceleration:
 AO-DIIS                CNVDIIS         .... on
   Start iteration      DIISMaxIt       ....    12
   Startup error        DIISStart       ....  0.200000
   # of expansion vecs  DIISMaxEq       ....     5
   Bias factor          DIISBfac        ....   1.050
   Max. coefficient     DIISMaxC        ....  10.000
 MO-DIIS                CNVKDIIS        .... off
 Trust-Rad. Augm. Hess. CNVTRAH         .... auto
   Auto Start mean grad. ratio tolernc. ....  1.125000
   Auto Start start iteration           ....    50
   Auto Start num. interpolation iter.  ....    10
   Max. Number of Micro iterations      ....    24
   Max. Number of Macro iterations      .... Maxiter - #DIIS iter
   Number of Davidson start vectors     ....     2
   Converg. threshold    (grad. norm)   ....   2.000e-06
   Grad. Scal. Fac. for Micro threshold ....   0.100
   Minimum threshold for Micro iter.    ....   1.000e-02
   NR start threshold (gradient norm)   ....   1.000e-04
   Initial trust radius                 ....   0.400
   Minimum AH scaling param. (alpha)    ....   1.000
   Maximum AH scaling param. (alpha)    .... 1000.000
   Quad. conv. algorithm                .... NR
   White noise on init. David. guess    .... on
   Maximum white noise                  ....   0.010
   Pseudo random numbers                .... off
   Inactive MOs                         .... canonical
   Orbital update algorithm             .... Taylor
   Preconditioner                       .... Diag
   Full preconditioner red. dimension   ....   250
 SOSCF                  CNVSOSCF        .... on
   Start iteration      SOSCFMaxIt      ....   150
   Startup grad/error   SOSCFStart      ....  0.003300
   Hessian update       SOSCFHessUp     .... L-BFGS
 Level Shifting         CNVShift        .... on
   Level shift para.    LevelShift      ....    0.2500
   Turn off err/grad.   ShiftErr        ....    0.0010
 Zerner damping         CNVZerner       .... off
 Static damping         CNVDamp         .... on
   Fraction old density DampFac         ....    0.7000
   Max. Damping (<1)    DampMax         ....    0.9800
   Min. Damping (>=0)   DampMin         ....    0.0000
   Turn off err/grad.   DampErr         ....    0.1000

SCF Procedure:
 Maximum # iterations   MaxIter         ....   400
 SCF integral mode      SCFMode         .... Direct
   Integral package                     .... SHARK and LIBINT hybrid scheme
 Reset frequency        DirectResetFreq ....    20
 Integral Threshold     Thresh          ....  1.000e-12 Eh
 Primitive CutOff       TCut            ....  1.000e-14 Eh

Convergence Tolerance:
 Convergence Check Mode ConvCheckMode   .... Total+1el-Energy
 Convergence forced     ConvForced      .... 1
 Energy Change          TolE            ....  1.000e-09 Eh
 1-El. energy change                    ....  1.000e-06 Eh
 Orbital Gradient       TolG            ....  2.000e-06
 Orbital Rotation angle TolX            ....  2.000e-06
 DIIS Error             TolErr          ....  1.000e-08

------------------------------
INITIAL GUESS: MODEL POTENTIAL
------------------------------
Loading Hartree-Fock densities                     ... done
Calculating cut-offs                               ... done
Initializing the effective Hamiltonian             ... done
Setting up the integral package (SHARK)            ... done
Starting the Coulomb interaction                   ... done (   0.0 sec)
Making the grid                                    ... done (   0.0 sec)
Mapping shells                                     ... done
Starting the XC term evaluation                    ... done (   0.0 sec)
  promolecular density results
     # of electrons  =      9.997943079
     EX              =     -6.701143225
     EC              =     -0.612367856
     EX+EC           =     -7.313511080
Transforming the Hamiltonian                       ... done (   0.0 sec)
Diagonalizing the Hamiltonian                      ... done (   0.0 sec)
Back transforming the eigenvectors                 ... done (   0.0 sec)
Now organizing SCF variables                       ... done
                      ------------------
                      INITIAL GUESS DONE (   0.1 sec)
                      ------------------
             **** ENERGY FILE WAS UPDATED (NH3_TDDFT-LDA.en.tmp) ****
Finished Guess after   0.1 sec
Maximum memory used throughout the entire GUESS-calculation: 7.6 MB

-------------------------------------------------------------------------------------------
                                      ORCA LEAN-SCF
                              memory conserving SCF solver
-------------------------------------------------------------------------------------------

----------------------------------------D-I-I-S--------------------------------------------
Iteration    Energy (Eh)           Delta-E    RMSDP     MaxDP     DIISErr   Damp  Time(sec)
-------------------------------------------------------------------------------------------
               ***  Starting incremental Fock matrix formation  ***
    1    -55.9764826341363602     0.00e+00  4.04e-03  8.49e-02  3.53e-01  0.700   0.1
    2    -56.0441304426633025    -6.76e-02  2.57e-03  5.52e-02  1.30e-01  0.700   0.1
                               ***Turning on AO-DIIS***
    3    -56.0616677098184795    -1.75e-02  7.99e-04  1.34e-02  1.82e-02  0.700   0.1
    4    -56.0734606482133700    -1.18e-02  8.86e-04  1.49e-02  1.84e-02  0.000   0.1
    5    -56.1032097950899811    -2.97e-02  4.98e-04  1.04e-02  2.00e-02  0.000   0.1
    6    -56.1035851868410020    -3.75e-04  1.56e-04  2.58e-03  4.51e-03  0.000   0.1
                              *** Initializing SOSCF ***
---------------------------------------S-O-S-C-F--------------------------------------
Iteration    Energy (Eh)           Delta-E    RMSDP     MaxDP     MaxGrad    Time(sec)
--------------------------------------------------------------------------------------
    7    -56.1036075693225911    -2.24e-05  5.60e-05  7.61e-04  8.79e-04     0.1
               *** Restarting incremental Fock matrix formation ***
    8    -56.1036092634543024    -1.69e-06  5.76e-05  1.21e-03  1.88e-04     0.1
    9    -56.1036095274776017    -2.64e-07  1.64e-05  3.24e-04  1.06e-04     0.1
   10    -56.1036095289569516    -1.48e-09  1.47e-05  3.10e-04  8.44e-05     0.1
   11    -56.1036095956109904    -6.67e-08  1.03e-06  1.90e-05  4.79e-06     0.1
   12    -56.1036095958956622    -2.85e-10  1.52e-07  2.87e-06  1.77e-06     0.1
                 **** Energy Check signals convergence ****

               *****************************************************
               *                     SUCCESS                       *
               *           SCF CONVERGED AFTER  12 CYCLES          *
               *****************************************************

             **** ENERGY FILE WAS UPDATED (NH3_TDDFT-LDA.en.tmp) ****

----------------
TOTAL SCF ENERGY
----------------

Total Energy       :        -56.10360959589566 Eh           -1526.65683 eV

Components:
Nuclear Repulsion  :         11.96288271554579 Eh             325.52659 eV
Electronic Energy  :        -68.06649231144145 Eh           -1852.18342 eV
One Electron Energy:        -99.68677469426993 Eh           -2712.61505 eV
Two Electron Energy:         31.62028238282848 Eh             860.43163 eV

Virial components:
Potential Energy   :       -111.86577133058383 Eh           -3044.02239 eV
Kinetic Energy     :         55.76216173468816 Eh            1517.36556 eV
Virial Ratio       :          2.00612328953157

DFT components:
N(Alpha)           :        4.999998380491 electrons
N(Beta)            :        4.999998380491 electrons
N(Total)           :        9.999996760982 electrons
E(X)               :       -6.894221850768 Eh       
E(C)               :       -0.625566417831 Eh       
E(XC)              :       -7.519788268599 Eh       

---------------
SCF CONVERGENCE
---------------

  Last Energy change         ...    2.8467e-10  Tolerance :   1.0000e-09
  Last MAX-Density change    ...    2.8680e-06  Tolerance :   1.0000e-08
  Last RMS-Density change    ...    1.5184e-07  Tolerance :   1.0000e-09
  Last DIIS Error            ...    8.7950e-04  Tolerance :   1.0000e-08
  Last Orbital Gradient      ...    1.7652e-06  Tolerance :   2.0000e-06
  Last Orbital Rotation      ...    1.6166e-06  Tolerance :   2.0000e-06


----------------
ORBITAL ENERGIES
----------------

  NO   OCC          E(Eh)            E(eV) 
   0   2.0000     -13.831001      -376.3607 
   1   2.0000      -0.770057       -20.9543 
   2   2.0000      -0.413218       -11.2442 
   3   2.0000      -0.413218       -11.2442 
   4   2.0000      -0.223443        -6.0802 
   5   0.0000       0.007760         0.2112 
   6   0.0000       0.089737         2.4419 
   7   0.0000       0.089738         2.4419 
   8   0.0000       0.268732         7.3126 
   9   0.0000       0.268733         7.3126 
  10   0.0000       0.307470         8.3667 
  11   0.0000       0.399371        10.8674 
  12   0.0000       0.443949        12.0805 
  13   0.0000       0.453924        12.3519 
  14   0.0000       0.453926        12.3520 
  15   0.0000       0.521021        14.1777 
*Only the first 10 virtual orbitals were printed.

                    ********************************
                    * MULLIKEN POPULATION ANALYSIS *
                    ********************************

-----------------------
MULLIKEN ATOMIC CHARGES
-----------------------
   0 N :   -0.435408
   1 H :    0.145138
   2 H :    0.145135
   3 H :    0.145135
Sum of atomic charges:   -0.0000000

--------------------------------
MULLIKEN REDUCED ORBITAL CHARGES
--------------------------------
  0 N s       :     3.504140  s :     3.504140
      pz      :     1.742201  p :     3.919098
      px      :     1.088448
      py      :     1.088448
      dz2     :     0.001862  d :     0.011822
      dxz     :     0.004699
      dyz     :     0.004699
      dx2y2   :     0.000280
      dxy     :     0.000280
      f0      :     0.000330  f :     0.000349
      f+1     :     0.000075
      f-1     :     0.000075
      f+2     :    -0.000113
      f-2     :    -0.000113
      f+3     :     0.000000
      f-3     :     0.000096

  1 H s       :     0.777580  s :     0.777580
      pz      :     0.035090  p :     0.072542
      px      :     0.018710
      py      :     0.018742
      dz2     :     0.000671  d :     0.004740
      dxz     :     0.000086
      dyz     :     0.002040
      dx2y2   :     0.000539
      dxy     :     0.001404

  2 H s       :     0.777579  s :     0.777579
      pz      :     0.035090  p :     0.072545
      px      :     0.018735
      py      :     0.018719
      dz2     :     0.000672  d :     0.004741
      dxz     :     0.001551
      dyz     :     0.000574
      dx2y2   :     0.001188
      dxy     :     0.000756

  3 H s       :     0.777579  s :     0.777579
      pz      :     0.035090  p :     0.072545
      px      :     0.018735
      py      :     0.018719
      dz2     :     0.000672  d :     0.004741
      dxz     :     0.001551
      dyz     :     0.000574
      dx2y2   :     0.001188
      dxy     :     0.000756



                     *******************************
                     * LOEWDIN POPULATION ANALYSIS *
                     *******************************

----------------------
LOEWDIN ATOMIC CHARGES
----------------------
   0 N :    0.168772
   1 H :   -0.056257
   2 H :   -0.056258
   3 H :   -0.056258

-------------------------------
LOEWDIN REDUCED ORBITAL CHARGES
-------------------------------
  0 N s       :     2.948919  s :     2.948919
      pz      :     1.519220  p :     3.796271
      px      :     1.138526
      py      :     1.138526
      dz2     :     0.003906  d :     0.078751
      dxz     :     0.014211
      dyz     :     0.014211
      dx2y2   :     0.023211
      dxy     :     0.023211
      f0      :     0.000510  f :     0.007288
      f+1     :     0.000003
      f-1     :     0.000003
      f+2     :     0.002377
      f-2     :     0.002377
      f+3     :     0.000000
      f-3     :     0.002018

  1 H s       :     0.739530  s :     0.739530
      pz      :     0.112105  p :     0.259717
      px      :     0.054898
      py      :     0.092714
      dz2     :     0.008466  d :     0.057010
      dxz     :     0.001698
      dyz     :     0.020034
      dx2y2   :     0.011594
      dxy     :     0.015218

  2 H s       :     0.739530  s :     0.739530
      pz      :     0.112106  p :     0.259718
      px      :     0.083260
      py      :     0.064352
      dz2     :     0.008466  d :     0.057009
      dxz     :     0.015450
      dyz     :     0.006282
      dx2y2   :     0.014312
      dxy     :     0.012500

  3 H s       :     0.739530  s :     0.739530
      pz      :     0.112106  p :     0.259718
      px      :     0.083260
      py      :     0.064352
      dz2     :     0.008466  d :     0.057009
      dxz     :     0.015450
      dyz     :     0.006282
      dx2y2   :     0.014312
      dxy     :     0.012500



                      *****************************
                      * MAYER POPULATION ANALYSIS *
                      *****************************

  NA   - Mulliken gross atomic population
  ZA   - Total nuclear charge
  QA   - Mulliken gross atomic charge
  VA   - Mayer's total valence
  BVA  - Mayer's bonded valence
  FA   - Mayer's free valence

  ATOM       NA         ZA         QA         VA         BVA        FA
  0 N      7.4354     7.0000    -0.4354     3.0273     3.0273    -0.0000
  1 H      0.8549     1.0000     0.1451     1.0365     1.0365    -0.0000
  2 H      0.8549     1.0000     0.1451     1.0365     1.0365    -0.0000
  3 H      0.8549     1.0000     0.1451     1.0365     1.0365    -0.0000

  Mayer bond orders larger than 0.100000
B(  0-N ,  1-H ) :   1.0091 B(  0-N ,  2-H ) :   1.0091 B(  0-N ,  3-H ) :   1.0091 


-------
TIMINGS
-------

Total SCF time: 0 days 0 hours 0 min 1 sec 

Total time                  ....       1.322 sec
Sum of individual times     ....       1.287 sec  ( 97.4%)

SCF preparation             ....       0.046 sec  (  3.5%)
Fock matrix formation       ....       0.530 sec  ( 40.1%)
  Startup                   ....       0.024 sec  (  4.5% of F)
  Split-RI-J                ....       0.110 sec  ( 20.8% of F)
  XC integration            ....       0.355 sec  ( 67.0% of F)
    Basis function eval.    ....       0.091 sec  ( 25.6% of XC)
    Density eval.           ....       0.077 sec  ( 21.7% of XC)
    XC-Functional eval.     ....       0.017 sec  (  4.8% of XC)
    XC-Potential eval.      ....       0.121 sec  ( 34.1% of XC)
Diagonalization             ....       0.000 sec  (  0.0%)
Density matrix formation    ....       0.232 sec  ( 17.5%)
Total Energy calculation    ....       0.081 sec  (  6.1%)
Population analysis         ....       0.039 sec  (  3.0%)
Orbital Transformation      ....       0.020 sec  (  1.5%)
Orbital Orthonormalization  ....       0.000 sec  (  0.0%)
DIIS solution               ....       0.243 sec  ( 18.4%)
SOSCF solution              ....       0.095 sec  (  7.2%)
Finished LeanSCF after   1.3 sec

Maximum memory used throughout the entire LEANSCF-calculation: 5.9 MB

------------------------------------------------------------------------------
                         ORCA PROPERTY INTEGRAL CALCULATIONS
------------------------------------------------------------------------------

GBWName                                   ... NH3_TDDFT-LDA.gbw
Number of atoms                           ...      4
Number of basis functions                 ...     73
Max core memory                           ...   4000 MB

Dipole integrals                          ... YES
Quadrupole integrals                      ...  NO
Linear momentum integrals                 ... YES
Angular momentum integrals                ... YES
Higher moments length integrals           ...  NO
Higher moments velocity integrals         ...  NO
Kinetic energy integrals                  ...  NO
GIAO right hand sides                     ...  NO
GIAO dipole derivative integrals          ...  NO
SOC integrals                             ...  NO
EPR diamagnetic integrals (GIAO)          ...  NO
EPR gauge integrals                       ...  NO
Field gradient integrals                  ...  NO (   0 nuclei)
Spin-dipole/Fermi contact integrals       ...  NO (   0 nuclei)
Contact density integrals                 ...  NO (   0 nuclei)
Nucleus-orbit integrals                   ...  NO (   0 nuclei)
Geometric perturbations                   ...  NO (   4 nuclei)

Choice of electric origin   ... Center of mass
Position of electric origin ... (  0.0000, -0.0000,  0.0876) 
Choice of magnetic origin   ... GIAO
Position of magnetic origin ... (  0.0000,  0.0000,  0.0000) 

Calculating integrals                     ... Electric Dipole (Length)     done (  0.0 sec)
Calculating integrals                     ... Linear Momentum              done (  0.0 sec)
Calculating integrals                     ... Angular Momentum  (ElOri)    done (  0.0 sec)

Property integrals calculated in   0.0 sec

Maximum memory used throughout the entire PROPINT-calculation: 7.8 MB
------------------------------------------------------------------------------
                        ORCA TD-DFT/TDA CALCULATION
------------------------------------------------------------------------------

Input orbitals are from        ... NH3_TDDFT-LDA.gbw
CI-vector output               ... NH3_TDDFT-LDA.cis
Solver                         ... FN-2001
Tamm-Dancoff approximation     ... operative
CIS-Integral strategy          ... AO-integrals
Integral handling              ... AO integral Direct
Max. core memory used          ... 4000 MB
Reference state                ... RHF
Generation of triplets         ... off
Follow IRoot                   ... off
Number of operators            ... 1
Orbital ranges used for CIS calculation:
 Operator 0:  Orbitals   1...  4  to   5... 72
XAS localization array:
 Operator 0:  Orbitals  -1... -1

-------------------
XC-INTEGRATION GRID
-------------------

General Integration Accuracy     IntAcc      ... 3.467
Radial Grid Type                 RadialGrid  ... OptM3 with GC (2021)
Angular Grid (max. ang.)         AngularGrid ... 1 (Lebedev-50)
Angular grid pruning method      GridPruning ... 4 (adaptive)
Weight generation scheme         WeightScheme... mBecke (2022)
Basis function cutoff            BFCut       ... 1.0000e-12
Integration weight cutoff        WCut        ... 1.0000e-14
Partially contracted basis set               ... off
Rotationally invariant grid construction     ... off
Angular grids for H and He will be reduced by one unit

Total number of grid points                  ...     2268
Total number of batches                      ...       38
Average number of points per batch           ...       59
Average number of grid points per atom       ...      567

---------------
TD-DFT XC SETUP
---------------

DFT calculation                         ... on
Name of the grid file                   ... NH3_TDDFT-LDA.grid_cis.tmp
RI-approximation                        ... on
Aux-basis dimension                     ... 0
Exchange functional (TD-DFT)            ... Slater
   X-Alpha parameter    XAlpha (TD-DFT) ...  0.666667
Correlation functional (TD-DFT)         ... VWN-5

Building densities             ... done
Calculating rho(r) on the grid ... done
Building xc-kernel on the grid ... done
                    *** TD-DFT CALCULATION INITIALIZED ***

------------------------
DAVIDSON-DIAGONALIZATION
------------------------

Dimension of the eigenvalue problem            ...    272
Number of roots to be determined               ...     10
Maximum size of the expansion space            ...    100
Maximum number of iterations                   ...    100
Convergence tolerance for the residual         ...    1.000e-07
Convergence tolerance for the energies         ...    1.000e-07
Orthogonality tolerance                        ...    1.000e-14
Level Shift                                    ...    0.000e+00
Constructing the preconditioner                ... o.k.
Building the initial guess                     ... o.k.
Number of trial vectors determined             ...    100


                       ****Iteration    0****
   Time for iteration     :  TOTAL=0.6 TRAFO=0.4 RIJ=0.0 XC=0.1
   Size of expansion space: 30
   Lowest Energy          :     0.238976774533
   Maximum Energy change  :     0.517121410379 (vector 9)
   Maximum residual norm  :     0.002139707262

                       ****Iteration    1****
   Time for iteration     :  TOTAL=0.2 TRAFO=0.1 RIJ=0.0 XC=0.0
   Size of expansion space: 40
   Lowest Energy          :     0.237956993835
   Maximum Energy change  :     0.002234796545 (vector 8)
   Maximum residual norm  :     0.000017367255

                       ****Iteration    2****
   Time for iteration     :  TOTAL=0.2 TRAFO=0.1 RIJ=0.0 XC=0.0
   Size of expansion space: 50
   Lowest Energy          :     0.237950027250
   Maximum Energy change  :     0.000006966586 (vector 0)
   Maximum residual norm  :     0.000000032647

      *** CONVERGENCE OF RESIDUAL NORM REACHED ***

Storing the converged CI vectors               ... NH3_TDDFT-LDA.cis1

                 *** DAVIDSON DONE ***

Total time for solving the CIS problem:     4.595sec

------------------------------------
TD-DFT/TDA EXCITED STATES (SINGLETS)
------------------------------------

the weight of the individual excitations are printed if larger than 1.0e-02

STATE  1:  E=   0.237950 au      6.475 eV    52224.0 cm**-1 <S**2> =   0.000000 Mult 1
     4a ->   5a  :     0.996141 (c= -0.99806876)

STATE  2:  E=   0.319681 au      8.699 eV    70161.9 cm**-1 <S**2> =   0.000000 Mult 1
     4a ->   7a  :     0.993593 (c= -0.99679114)

STATE  3:  E=   0.319763 au      8.701 eV    70179.9 cm**-1 <S**2> =   0.000000 Mult 1
     4a ->   6a  :     0.993617 (c=  0.99680355)

STATE  4:  E=   0.430911 au     11.726 eV    94574.1 cm**-1 <S**2> =   0.000000 Mult 1
     2a ->   5a  :     0.990210 (c=  0.99509283)

STATE  5:  E=   0.431327 au     11.737 eV    94665.3 cm**-1 <S**2> =   0.000000 Mult 1
     3a ->   5a  :     0.990116 (c= -0.99504560)

STATE  6:  E=   0.495211 au     13.475 eV   108686.3 cm**-1 <S**2> =   0.000000 Mult 1
     2a ->   6a  :     0.057063 (c= -0.23887805)
     3a ->   7a  :     0.061970 (c= -0.24893769)
     4a ->   9a  :     0.874580 (c=  0.93518981)

STATE  7:  E=   0.495389 au     13.480 eV   108725.3 cm**-1 <S**2> =   0.000000 Mult 1
     2a ->   7a  :     0.061860 (c= -0.24871688)
     3a ->   6a  :     0.063667 (c=  0.25232363)
     4a ->   8a  :     0.868303 (c= -0.93182761)

STATE  8:  E=   0.503065 au     13.689 eV   110410.0 cm**-1 <S**2> =   0.000000 Mult 1
     2a ->   6a  :     0.496395 (c= -0.70455300)
     3a ->   7a  :     0.503473 (c=  0.70955862)

STATE  9:  E=   0.514833 au     14.009 eV   112992.9 cm**-1 <S**2> =   0.000000 Mult 1
     2a ->   6a  :     0.437361 (c= -0.66133241)
     3a ->   7a  :     0.425195 (c= -0.65207015)
     4a ->   9a  :     0.108937 (c= -0.33005636)

STATE 10:  E=   0.514948 au     14.012 eV   113018.1 cm**-1 <S**2> =   0.000000 Mult 1
     2a ->   7a  :     0.434649 (c=  0.65927912)
     3a ->   6a  :     0.421182 (c= -0.64898541)
     4a ->   8a  :     0.115173 (c= -0.33937158)


-----------------------------
TD-DFT/TDA-EXCITATION SPECTRA
-----------------------------

Center of mass = (  0.0000, -0.0000,  0.0876)
Generating CIS transition densities           ... done

----------------------------------------------------------------------------------------------------
                     ABSORPTION SPECTRUM VIA TRANSITION ELECTRIC DIPOLE MOMENTS    
----------------------------------------------------------------------------------------------------
     Transition      Energy     Energy  Wavelength fosc(D2)      D2        DX        DY        DZ   
                      (eV)      (cm-1)    (nm)                 (au**2)    (au)      (au)      (au)  
----------------------------------------------------------------------------------------------------
  0-1A  ->  1-1A    6.474949   52224.0   191.5   0.057154929   0.36030  -0.00000  -0.00048   0.60025
  0-1A  ->  2-1A    8.698961   70161.9   142.5   0.025698385   0.12058   0.34725   0.00000   0.00000
  0-1A  ->  3-1A    8.701198   70179.9   142.5   0.025703658   0.12058   0.00000  -0.34724  -0.00064
  0-1A  ->  4-1A   11.725694   94574.1   105.7   0.166633871   0.58005   0.76161   0.00000  -0.00000
  0-1A  ->  5-1A   11.736997   94665.3   105.6   0.166521513   0.57910   0.00000  -0.76099  -0.00036
  0-1A  ->  6-1A   13.475382  108686.3    92.0   0.012711689   0.03850   0.19622  -0.00000   0.00000
  0-1A  ->  7-1A   13.480214  108725.3    92.0   0.011629848   0.03521   0.00000   0.18764   0.00253
  0-1A  ->  8-1A   13.689099  110410.0    90.6   0.000014554   0.00004   0.00659   0.00000  -0.00000
  0-1A  ->  9-1A   14.009330  112992.9    88.5   0.202516914   0.59005  -0.76814   0.00000  -0.00000
  0-1A  -> 10-1A   14.012456  113018.1    88.5   0.203373316   0.59241   0.00000   0.76968   0.00297

----------------------------------------------------------------------------------------------------
                     ABSORPTION SPECTRUM VIA TRANSITION VELOCITY DIPOLE MOMENTS    
----------------------------------------------------------------------------------------------------
     Transition      Energy     Energy  Wavelength fosc(P2)      P2        PX        PY        PZ   
                      (eV)      (cm-1)    (nm)                 (au**2)    (au)      (au)      (au)  
----------------------------------------------------------------------------------------------------
  0-1A  ->  1-1A    6.474949   52224.0   191.5   0.071559032   0.02554   0.00000   0.00007  -0.15982
  0-1A  ->  2-1A    8.698961   70161.9   142.5   0.008266527   0.00396  -0.06296  -0.00000  -0.00000
  0-1A  ->  3-1A    8.701198   70179.9   142.5   0.008259535   0.00396  -0.00000   0.06294   0.00026
  0-1A  ->  4-1A   11.725694   94574.1   105.7   0.141736407   0.09161  -0.30268  -0.00000   0.00000
  0-1A  ->  5-1A   11.736997   94665.3   105.6   0.141497657   0.09155  -0.00000   0.30257   0.00022
  0-1A  ->  6-1A   13.475382  108686.3    92.0   0.008163347   0.00606  -0.07787   0.00000  -0.00000
  0-1A  ->  7-1A   13.480214  108725.3    92.0   0.007425998   0.00552  -0.00000  -0.07428  -0.00107
  0-1A  ->  8-1A   13.689099  110410.0    90.6   0.000010497   0.00001  -0.00281  -0.00000  -0.00000
  0-1A  ->  9-1A   14.009330  112992.9    88.5   0.135620127   0.10473   0.32362  -0.00000   0.00000
  0-1A  -> 10-1A   14.012456  113018.1    88.5   0.135998637   0.10505  -0.00000  -0.32411  -0.00137

------------------------------------------------------------------------------------------
                     CD SPECTRUM VIA TRANSITION ELECTRIC DIPOLE MOMENTS    
------------------------------------------------------------------------------------------
     Transition      Energy     Energy  Wavelength    R        MX        MY        MZ   
                      (eV)      (cm-1)    (nm)   (1e40*cgs)   (au)      (au)      (au)  
------------------------------------------------------------------------------------------
  0-1A  ->  1-1A    6.474949   52224.0   191.5    0.00000   0.00000   0.00000  -0.00000
  0-1A  ->  2-1A    8.698961   70161.9   142.5    0.00000  -0.00000  -0.07622  -0.00001
  0-1A  ->  3-1A    8.701198   70179.9   142.5    0.00000  -0.07629   0.00000  -0.00000
  0-1A  ->  4-1A   11.725694   94574.1   105.7   -0.00000  -0.00000   0.05521  -0.00018
  0-1A  ->  5-1A   11.736997   94665.3   105.6   -0.00000   0.05527   0.00000   0.00000
  0-1A  ->  6-1A   13.475382  108686.3    92.0    0.00000  -0.00000  -0.15975  -0.00168
  0-1A  ->  7-1A   13.480214  108725.3    92.0    0.00000   0.15879  -0.00000  -0.00000
  0-1A  ->  8-1A   13.689099  110410.0    90.6    0.00000  -0.00000  -0.00152   0.19179
  0-1A  ->  9-1A   14.009330  112992.9    88.5    0.00000   0.00000   0.07576   0.00129
  0-1A  -> 10-1A   14.012456  113018.1    88.5   -0.00000   0.07724  -0.00000  -0.00000

------------------------------------------------------------------------------------------
                     CD SPECTRUM VIA TRANSITION VELOCITY DIPOLE MOMENTS    
------------------------------------------------------------------------------------------
     Transition      Energy     Energy  Wavelength    R        MX        MY        MZ   
                      (eV)      (cm-1)    (nm)   (1e40*cgs)   (au)      (au)      (au)  
------------------------------------------------------------------------------------------
  0-1A  ->  1-1A    6.474949   52224.0   191.5    0.00000   0.00000   0.00000  -0.00000
  0-1A  ->  2-1A    8.698961   70161.9   142.5    0.00000  -0.00000  -0.07622  -0.00001
  0-1A  ->  3-1A    8.701198   70179.9   142.5    0.00000  -0.07629   0.00000  -0.00000
  0-1A  ->  4-1A   11.725694   94574.1   105.7    0.00000  -0.00000   0.05521  -0.00018
  0-1A  ->  5-1A   11.736997   94665.3   105.6    0.00000   0.05527   0.00000   0.00000
  0-1A  ->  6-1A   13.475382  108686.3    92.0   -0.00000  -0.00000  -0.15975  -0.00168
  0-1A  ->  7-1A   13.480214  108725.3    92.0   -0.00000   0.15879  -0.00000  -0.00000
  0-1A  ->  8-1A   13.689099  110410.0    90.6   -0.00000  -0.00000  -0.00152   0.19179
  0-1A  ->  9-1A   14.009330  112992.9    88.5    0.00000   0.00000   0.07576   0.00129
  0-1A  -> 10-1A   14.012456  113018.1    88.5    0.00000   0.07724  -0.00000  -0.00000

Total run time:        4.893 sec

           *** ORCA-CIS/TD-DFT FINISHED WITHOUT ERROR ***
-----------------------
CIS/TD-DFT TOTAL ENERGY
-----------------------

    E(SCF)  =    -56.103609596 Eh
    DE(CIS) =      0.237950027 Eh (Root  1)
    ----------------------------- ---------
    E(tot)  =    -55.865659569 Eh


------------------------
TD-DFT GRADIENT XC SETUP
------------------------

Building densities                     ... done
Calculating rho(r) on the grid         ... done
Building xc-kernel on the grid         ... done
Building xc 3rd derivative on the grid ... done
                *** TD-DFT GRADIENT CALCULATION INITIALIZED ***

--------------------------
TD-DFT/TDA RELAXED DENSITY
--------------------------

Reference wavefunction             ... RHF
State of interest                  ... 1
Basis dimension                    ... 73
DFT-XC contribution needed         ... YES
RI-approximation                   ... YES
Do Coulomb                         ... YES
Do Exchange                        ... NO
Need Hartree-Fock Exchange         ... NO
facj, facx                         ...  2.000,  0.000
Conventional                       ... NO
Range separation                   ... NO
Triplet state                      ... NO
Spin Flip                          ... NO
CIS-vectors being read from        ... NH3_TDDFT-LDA.cis
 => Number of Vectors found: 10
 => Orbital Window: 1...4 -> 5...72

Reading the CIS file                     ... done
Norm of the CI vector                    ... 1.000000000
Making the CIS (pseudo)densities         ... done
Making operators G(D) and Q(T)           ... (SHARK-ok)done
Transforming the Fock operators          ... done
Making the frozen-core relaxed density   ... done
Constructing the G(H) operator           ... (SHARK-ok)done
Transforming the G(H) operator           ... done
Calculating the CIS Lagrangian           ... done
Solving the Z-vector equations           ... 

Using XC Grid                  ... (NH3_TDDFT-LDA.grid_cpscf.tmp) 
Recalculating density on grid  ... (NH3_TDDFT-LDA.grho_cpscf0.tmp) done
Calculating the xc-kernel      ... (NH3_TDDFT-LDA.fxc_cpscf0.tmp) done

-------------------
SHARK CP-SCF DRIVER
-------------------

Dimension of the orbital basis          ...     73
Dimension of the CPSCF-problem          ...    340
Number of operators                     ...      1
Max. number of iterations               ...    128
Convergence Tolerance                   ... 3.0e-05
Number of perturbations                 ...      1
Perturbation type                       ... REAL

----------------------------
POPLE LINEAR EQUATION SOLVER
----------------------------

  ITERATION   0:   ||err||_max =   2.5348e+00 (   0.1 sec)
  ITERATION   1:   ||err||_max =   2.7118e-02 (   0.1 sec)
  ITERATION   2:   ||err||_max =   2.1565e-03 (   0.1 sec)
  ITERATION   3:   ||err||_max =   1.3416e-04 (   0.1 sec)
  ITERATION   4:   ||err||_max =   8.1219e-06 (   0.1 sec)

Finalizing the relaxed density           ... done
Storing the relaxed density              ... done
Constructing the G(Z) operator           ... (SHARK-ok)done
Adding the XC terms                      ... done
Transforming the G(Z) operator           ... done
Making the W-matrix                      ... done
Finalizing the W-matrix                  ... done
Transforming the W-matrix                ... done
Nuc. rep. gradient        (SHARK) ... done (  0.0 sec)
HCore & Overlap gradient  (SHARK) ... done (  0.0 sec)
Split-RIJ-J gradient      (SHARK) ... done (  0.1 sec)
done (  0.4 sec)

                 ---------------------------
                 EXCITED STATE GRADIENT DONE
                 ---------------------------

------------------
CARTESIAN GRADIENT
------------------

   1   N   :   -0.000000001    0.001017347    0.009778698
   2   H   :   -0.000000000   -0.046694534   -0.003023406
   3   H   :    0.039646173    0.022838998   -0.003377803
   4   H   :   -0.039646173    0.022838999   -0.003377803

Difference to translation invariance:
           :   -0.0000000009    0.0000008100   -0.0000003145

Difference to rotation invariance:
           :   -0.0000994868   -0.0000000002    0.0000000005

Norm of the Cartesian gradient     ...    0.0805969931
RMS gradient                       ...    0.0232663478
MAX gradient                       ...    0.0466945340

------------------------------------------------------------------------------
                  RELAXED CIS/TDA DENSITY POPULATION ANALYSIS
                                   IROOT 1
------------------------------------------------------------------------------
------------------------------------------------------------------------------
                           ORCA POPULATION ANALYSIS
------------------------------------------------------------------------------
Input electron density              ... NH3_TDDFT-LDA.cispre.singlet.iroot1
BaseName (.gbw .S,...)              ... NH3_TDDFT-LDA

                    ********************************
                    * MULLIKEN POPULATION ANALYSIS *
                    ********************************

-----------------------
MULLIKEN ATOMIC CHARGES
-----------------------
   0 N :    0.934552
   1 H :   -0.313475
   2 H :   -0.310539
   3 H :   -0.310539
Sum of atomic charges:   -0.0000000

--------------------------------
MULLIKEN REDUCED ORBITAL CHARGES
--------------------------------
  0 N s       :     2.752979  s :     2.752979
      pz      :     0.883719  p :     3.308682
      px      :     1.211854
      py      :     1.213110
      dz2     :    -0.003438  d :     0.004032
      dxz     :     0.002115
      dyz     :     0.002166
      dx2y2   :     0.001617
      dxy     :     0.001571
      f0      :    -0.000110  f :    -0.000245
      f+1     :     0.000001
      f-1     :    -0.000000
      f+2     :    -0.000069
      f-2     :    -0.000070
      f+3     :     0.000000
      f-3     :     0.000003
  1 H s       :     1.296096  s :     1.296096
      pz      :     0.006122  p :     0.014268
      px      :     0.015161
      py      :    -0.007015
      dz2     :     0.000373  d :     0.003111
      dxz     :     0.000118
      dyz     :     0.000989
      dx2y2   :     0.000246
      dxy     :     0.001386
  2 H s       :     1.293302  s :     1.293302
      pz      :     0.005980  p :     0.014111
      px      :    -0.001618
      py      :     0.009750
      dz2     :     0.000388  d :     0.003125
      dxz     :     0.000762
      dyz     :     0.000335
      dx2y2   :     0.001102
      dxy     :     0.000537
  3 H s       :     1.293302  s :     1.293302
      pz      :     0.005980  p :     0.014111
      px      :    -0.001618
      py      :     0.009750
      dz2     :     0.000388  d :     0.003125
      dxz     :     0.000762
      dyz     :     0.000335
      dx2y2   :     0.001102
      dxy     :     0.000537


                     *******************************
                     * LOEWDIN POPULATION ANALYSIS *
                     *******************************

----------------------
LOEWDIN ATOMIC CHARGES
----------------------
   0 N :    0.757072
   1 H :   -0.252936
   2 H :   -0.252068
   3 H :   -0.252068

-------------------------------
LOEWDIN REDUCED ORBITAL CHARGES
-------------------------------
  0 N s       :     2.953923  s :     2.953923
      pz      :     0.830972  p :     3.216630
      px      :     1.192760
      py      :     1.192898
      dz2     :     0.007618  d :     0.065730
      dxz     :     0.008420
      dyz     :     0.008407
      dx2y2   :     0.020642
      dxy     :     0.020643
      f0      :     0.000548  f :     0.006645
      f+1     :    -0.000009
      f-1     :    -0.000009
      f+2     :     0.002161
      f-2     :     0.002162
      f+3     :     0.000000
      f-3     :     0.001793
  1 H s       :     0.923751  s :     0.923751
      pz      :     0.052856  p :     0.271869
      px      :     0.053238
      py      :     0.165776
      dz2     :     0.007079  d :     0.057316
      dxz     :     0.002079
      dyz     :     0.017315
      dx2y2   :     0.014256
      dxy     :     0.016588
  2 H s       :     0.923023  s :     0.923023
      pz      :     0.052854  p :     0.271723
      px      :     0.137491
      py      :     0.081377
      dz2     :     0.007082  d :     0.057322
      dxz     :     0.013507
      dyz     :     0.005891
      dx2y2   :     0.016006
      dxy     :     0.014836
  3 H s       :     0.923023  s :     0.923023
      pz      :     0.052854  p :     0.271723
      px      :     0.137491
      py      :     0.081377
      dz2     :     0.007082  d :     0.057322
      dxz     :     0.013507
      dyz     :     0.005891
      dx2y2   :     0.016006
      dxy     :     0.014836


                      *****************************
                      * MAYER POPULATION ANALYSIS *
                      *****************************

  NA   - Mulliken gross atomic population
  ZA   - Total nuclear charge
  QA   - Mulliken gross atomic charge
  VA   - Mayer's total valence
  BVA  - Mayer's bonded valence
  FA   - Mayer's free valence

  ATOM       NA         ZA         QA         VA         BVA        FA
  0 N      6.0654     7.0000     0.9346     0.6458     0.6960    -0.0503
  1 H      1.3135     1.0000    -0.3135     1.5187     0.8784     0.6402
  2 H      1.3105     1.0000    -0.3105     1.5172     0.8788     0.6384
  3 H      1.3105     1.0000    -0.3105     1.5172     0.8788     0.6384

  Mayer bond orders larger than 0.100000
B(  0-N ,  1-H ) :   0.2309 B(  0-N ,  2-H ) :   0.2326 B(  0-N ,  3-H ) :   0.2326 
B(  1-H ,  2-H ) :   0.3238 B(  1-H ,  3-H ) :   0.3238 B(  2-H ,  3-H ) :   0.3225 



-------
TIMINGS
-------

Total TD-DFT gradient time  ....        1.267 sec

Fock matrix formation       ....       0.222 sec  ( 17.5%)
  Coulomb formation         ....       0.063 sec  ( 28.4% of F)
  XC integration            ....       0.159 sec  ( 71.6% of F)
Z-vector equation           ....       0.418 sec  ( 33.0%)
One electron gradient       ....       0.012 sec  (  0.9%)
RI-J Coulomb gradient       ....       0.087 sec  (  6.9%)
XC gradient                 ....       0.394 sec  ( 31.1%)

Maximum memory used throughout the entire CIS-calculation: 14.1 MB
=> NOW LEAVING ORCA_CIS

-------------------------   --------------------
FINAL SINGLE POINT ENERGY       -55.865659568646
-------------------------   --------------------

------------------------------------------------------------------------------
                         ORCA GEOMETRY RELAXATION STEP
------------------------------------------------------------------------------

Reading the OPT-File                    .... done
Getting information on internals        .... done
Copying old internal coords+grads       .... done
Making the new internal coordinates     .... (2022 redundants) done
Validating the new internal coordinates .... (2022 redundants) done
Calculating the B-matrix                .... done
Calculating the G,G- and P matrices     .... done
Transforming gradient to internals      .... done
Projecting the internal gradient        .... done
Number of atoms                         ....   4
Number of internal coordinates          ....   7
Current Energy                          ....   -55.865659569 Eh
Current gradient norm                   ....     0.080596993 Eh/bohr
Maximum allowed component of the step   ....  0.300
Current trust radius                    ....  0.300
Evaluating the initial hessian          ....  (Almloef) done
Projecting the Hessian                  .... done
Forming the augmented Hessian           .... done
Diagonalizing the augmented Hessian     .... done
Last element of RFO vector              ....  0.954023501
Lowest eigenvalues of augmented Hessian:
 -0.021828042  0.118219646  0.302702146  0.303922244  0.430235541
Length of the computed step             ....  0.314176551
Warning: the length of the step is outside the trust region - taking restricted step instead
The input lambda is                     ....     0.108475
   iter:   5  x=    0.101884  g=18480.122063 f(x)=    46.738100
   iter:  10  x=    0.053633  g=   44.148698 f(x)=     0.790019
   iter:  15  x=   -0.029717  g=    1.034884 f(x)=     0.000895
The output lambda is                    ....    -0.029725 (18 iterations)
The final length of the internal step   ....  0.300000000
Converting the step to Cartesian space:
 Initial RMS(Int)=    0.1133893419
Transforming coordinates:
 Iter   0:  RMS(Cart)=    0.0778436012 RMS(Int)=    0.1115468993
 Iter   5:  RMS(Cart)=    0.0000002888 RMS(Int)=    0.0000003857
done
Storing new coordinates                 .... done

                                .--------------------.
          ----------------------|Geometry convergence|-------------------------
          Item                value                   Tolerance       Converged
          ---------------------------------------------------------------------
          RMS gradient        0.0311175173            0.0000100000      NO
          MAX gradient        0.0421765665            0.0001000000      NO
          RMS step            0.1133893419            0.0000100000      NO
          MAX step            0.1999627888            0.0001000000      NO
          ........................................................
          Max(Bonds)      0.0485      Max(Angles)    5.71
          Max(Dihed)        0.00      Max(Improp)   11.46
          ---------------------------------------------------------------------

The optimization has not yet converged - more geometry cycles are needed


    ---------------------------------------------------------------------------
                         Redundant Internal Coordinates
                            (Angstroem and degrees)

        Definition                    Value    dE/dq     Step     New-Value
    ----------------------------------------------------------------------------
     1. B(H   1,N   0)                1.0116 -0.042177  0.0485    1.0601   
     2. B(H   2,N   0)                1.0116 -0.041157  0.0474    1.0589   
     3. B(H   3,N   0)                1.0116 -0.041157  0.0474    1.0589   
     4. A(H   1,N   0,H   3)          106.84 -0.009997    5.07    111.91   
     5. A(H   2,N   0,H   3)          106.84 -0.025235    5.71    112.56   
     6. A(H   1,N   0,H   2)          106.84 -0.009997    5.07    111.91   
     7. I(H   1,H   3,H   2,N   0)     60.91  0.027835  -11.46     49.45   
    ----------------------------------------------------------------------------

Geometry step timings:
Preparation and reading OPT file:      0.009 s (75.000 %)
Internal coordinates            :      0.000 s ( 0.000 %)
B/P matrices and projection     :      0.000 s ( 0.000 %)
Hessian update/contruction      :      0.002 s (16.667 %)
Making the step                 :      0.000 s ( 0.000 %)
Converting the step to Cartesian:      0.000 s ( 0.000 %)
Storing new data                :      0.000 s ( 0.000 %)
Checking convergence            :      0.000 s ( 0.000 %)
Final printing                  :      0.001 s ( 8.333 %)
Total time                      :      0.012 s

Time for energy+gradient        :      8.007 s
Time for complete geometry iter :      8.071 s

         *************************************************************
         *                GEOMETRY OPTIMIZATION CYCLE   2            *
         *************************************************************
---------------------------------
CARTESIAN COORDINATES (ANGSTROEM)
---------------------------------
  N      0.000000   -0.002923    0.062957
  H     -0.000000    1.010220   -0.249002
  H     -0.879762   -0.503649   -0.247822
  H      0.879762   -0.503649   -0.247822

----------------------------
CARTESIAN COORDINATES (A.U.)
----------------------------
  NO LB      ZA    FRAG     MASS         X           Y           Z
   0 N     7.0000    0    14.007    0.000000   -0.005523    0.118972
   1 H     1.0000    0     1.008   -0.000000    1.909039   -0.470545
   2 H     1.0000    0     1.008   -1.662508   -0.951759   -0.468315
   3 H     1.0000    0     1.008    1.662508   -0.951759   -0.468315

--------------------------------
INTERNAL COORDINATES (ANGSTROEM)
--------------------------------
 N      0   0   0     0.000000000000     0.00000000     0.00000000
 H      1   0   0     1.060083088369     0.00000000     0.00000000
 H      1   2   0     1.058910272887   111.44223462     0.00000000
 H      1   2   3     1.058910272257   111.44223470   126.40299462

---------------------------
INTERNAL COORDINATES (A.U.)
---------------------------
 N      0   0   0     0.000000000000     0.00000000     0.00000000
 H      1   0   0     2.003266716219     0.00000000     0.00000000
 H      1   2   0     2.001050416153   111.44223462     0.00000000
 H      1   2   3     2.001050414961   111.44223470   126.40299462

------------------------------------------------------------------------------
                   ___                                                        
                  /   \      - P O W E R E D   B Y -                         
                 /     \                                                     
                 |  |  |   _    _      __       _____    __    __             
                 |  |  |  | |  | |    /  \     |  _  \  |  |  /  |          
                  \  \/   | |  | |   /    \    | | | |  |  | /  /          
                 / \  \   | |__| |  /  /\  \   | |_| |  |  |/  /          
                |  |  |   |  __  | /  /__\  \  |    /   |      \           
                |  |  |   | |  | | |   __   |  |    \   |  |\   \          
                \     /   | |  | | |  |  |  |  | |\  \  |  | \   \       
                 \___/    |_|  |_| |__|  |__|  |_| \__\ |__|  \__/        
                                                                              
                      - O R C A' S   B I G   F R I E N D -                    
                                      &                                       
                       - I N T E G R A L  F E E D E R -                       
                                                                              
 v1 FN, 2020, v2 2021, v3 2022-2024                                           
------------------------------------------------------------------------------


----------------------
SHARK INTEGRAL PACKAGE
----------------------

Number of atoms                             ...      4
Number of basis functions                   ...     73
Number of shells                            ...     29
Maximum angular momentum                    ...      3
Integral batch strategy                     ... SHARK/LIBINT Hybrid
RI-J (if used) integral strategy            ... SPLIT-RIJ (Revised 2003 algorithm where possible)
Printlevel                                  ...      1
Contraction scheme used                     ... SEGMENTED contraction
Prescreening option                         ... SCHWARTZ
   Thresh                                   ... 1.000e-12
   Tcut                                     ... 1.000e-14
   Tpresel                                  ... 1.000e-14 
Coulomb Range Separation                    ... NOT USED
Exchange Range Separation                   ... NOT USED
Multipole approximations                    ... NOT USED
Finite Nucleus Model                        ... NOT USED
CABS basis                                  ... NOT available
Auxiliary Coulomb fitting basis             ... AVAILABLE
   # of basis functions in Aux-J            ...     82
   # of shells in Aux-J                     ...     30
   Maximum angular momentum in Aux-J        ...      4
Auxiliary J/K fitting basis                 ... NOT available
Auxiliary Correlation fitting basis         ... NOT available
Auxiliary 'external' fitting basis          ... NOT available

Checking pre-screening integrals            ... done (  0.0 sec) Dimension = 29
Check shell pair data                       ... done (  0.0 sec)
Shell pair information
Shell pair cut-off parameter TPreSel        ...   1.0e-14
Total number of shell pairs                 ...       435
Shell pairs after pre-screening             ...       435
Total number of primitive shell pairs       ...      1021
Primitive shell pairs kept                  ...       991
          la=0 lb=0:    105 shell pairs
          la=1 lb=0:    126 shell pairs
          la=1 lb=1:     45 shell pairs
          la=2 lb=0:     70 shell pairs
          la=2 lb=1:     45 shell pairs
          la=2 lb=2:     15 shell pairs
          la=3 lb=0:     14 shell pairs
          la=3 lb=1:      9 shell pairs
          la=3 lb=2:      5 shell pairs
          la=3 lb=3:      1 shell pairs

Calculating one electron integrals          ... done (  0.0 sec)
Calculating RI/J V-Matrix + Cholesky decomp.... done (  0.0 sec)
Calculating Nuclear repulsion               ... done (  0.0 sec) ENN=     11.395818732079 Eh

Diagonalization of the overlap matrix:
Smallest eigenvalue                        ... 1.161e-03
Time for diagonalization                   ...    0.001 sec
Threshold for overlap eigenvalues          ... 1.000e-07
Number of eigenvalues below threshold      ... 0
Time for construction of square roots      ...    0.001 sec
Total time needed                          ...    0.006 sec

-------------------
DFT GRID GENERATION
-------------------

General Integration Accuracy     IntAcc      ... 4.388
Radial Grid Type                 RadialGrid  ... OptM3 with GC (2021)
Angular Grid (max. ang.)         AngularGrid ... 4 (Lebedev-302)
Angular grid pruning method      GridPruning ... 4 (adaptive)
Weight generation scheme         WeightScheme... mBecke (2022)
Basis function cutoff            BFCut       ... 1.0000e-12
Integration weight cutoff        WCut        ... 1.0000e-14
Partially contracted basis set               ... off
Rotationally invariant grid construction     ... off
Angular grids for H and He will be reduced by one unit

Total number of grid points                  ...    16027
Total number of batches                      ...      253
Average number of points per batch           ...       63
Average number of grid points per atom       ...     4007
Initializing property integral containers    ... done (  0.0 sec)

SHARK setup successfully completed in   0.1 seconds

Maximum memory used throughout the entire STARTUP-calculation: 13.8 MB
Occupation numbers will be reassigned to an Aufbau configuration
             **** ENERGY FILE WAS UPDATED (NH3_TDDFT-LDA.en.tmp) ****
Finished Guess after   0.1 sec
Maximum memory used throughout the entire GUESS-calculation: 7.7 MB
----------------------------------------D-I-I-S--------------------------------------------
Iteration    Energy (Eh)           Delta-E    RMSDP     MaxDP     DIISErr   Damp  Time(sec)
-------------------------------------------------------------------------------------------
               ***  Starting incremental Fock matrix formation  ***
[...]

NMR properties:
Chemical shifts                         ...  NO (   0 nuclei)
Spin-rotation constants                 ...  NO (   0 nuclei)
Spin-spin couplings                     ...  NO (   0 nuclei,    0 pairs)

Choice of magnetic origin               ... GIAO
Position of magnetic origin             ...     0.000000     0.000000     0.000000

Properties with geometric perturbations:
SCF Hessian                             ...  NO
IR spectrum                             ... YES
VCD spectrum                            ...  NO
X-ray spectroscopy properties:
SCF XES/XAS/RIXS spectra                ...  NO


-------------
DIPOLE MOMENT
-------------

Method             : SCF
Type of density    : Electron Density
Multiplicity       :   1
Irrep              :   0
Energy             :   -56.0854329614166360 Eh
Relativity type    : 
Basis              : AO
                                X                 Y                 Z
Electronic contribution:      0.000000000      -0.000854828      -0.000007907
Nuclear contribution   :     -0.000000001       0.002145828       0.000037965
                        -----------------------------------------
Total Dipole Moment    :     -0.000000000       0.001291001       0.000030058
                        -----------------------------------------
Magnitude (a.u.)       :      0.001291350
Magnitude (Debye)      :      0.003282352



--------------------
Rotational spectrum 
--------------------
 
Rotational constants in cm-1:             9.697633             9.440232             4.783601 
Rotational constants in MHz :        290727.718905        283011.027666        143408.739652 

Dipole components along the rotational axes: 
x,y,z [a.u.] :     0.001291    -0.000000     0.000032 
x,y,z [Debye]:     0.003281    -0.000000     0.000081 

 

-------------
DIPOLE MOMENT
-------------

Method             : TDA/CIS
Type of density    : Electron Density
Level              : Relaxed density
State              :   1
Multiplicity       :   1
Irrep              :   0
Energy             :     0.0000000000000000 Eh
Relativity type    : 
Basis              : AO
                                X                 Y                 Z
Electronic contribution:      0.000000002      -0.047876510       0.000025687
Nuclear contribution   :     -0.000000001       0.002145828       0.000037965
                        -----------------------------------------
Total Dipole Moment    :      0.000000001      -0.045730682       0.000063651
                        -----------------------------------------
Magnitude (a.u.)       :      0.045730726
Magnitude (Debye)      :      0.116238269



--------------------
Rotational spectrum 
--------------------
 
Rotational constants in cm-1:             9.697633             9.440232             4.783601 
Rotational constants in MHz :        290727.718905        283011.027666        143408.739652 

Dipole components along the rotational axes: 
x,y,z [a.u.] :    -0.045731     0.000000    -0.000003 
x,y,z [Debye]:    -0.116238     0.000000    -0.000008 

 

Dipole moment calculation done in   0.1 sec 

Maximum memory used throughout the entire PROP-calculation: 9.4 MB

----------------------------------------------------------------------------
                           ORCA NUMERICAL FREQUENCIES
----------------------------------------------------------------------------

Number of atoms                ... 4
Central differences            ... used
Number of displacements        ... 24
Numerical increment            ... 5.000e-03 bohr
IR-spectrum generation         ... on
Raman-spectrum generation      ... off
Surface Crossing Hessian       ... off

The output will be reduced. Please look at the following files:
SCF program output             ... >NH3_TDDFT-LDA.lastscf
Integral program output        ... >NH3_TDDFT-LDA.lastint
Gradient program output        ... >NH3_TDDFT-LDA.lastgrad
Dipole moment program output   ... >NH3_TDDFT-LDA.lastmom

	<< Calculating gradient on displaced geometry   1 (of  24) >>
	<< Calculating gradient on displaced geometry   2 (of  24) >>
	<< Calculating gradient on displaced geometry   3 (of  24) >>
	<< Calculating gradient on displaced geometry   4 (of  24) >>
	<< Calculating gradient on displaced geometry   5 (of  24) >>
	<< Calculating gradient on displaced geometry   6 (of  24) >>
	<< Calculating gradient on displaced geometry   7 (of  24) >>
	<< Calculating gradient on displaced geometry   8 (of  24) >>
	<< Calculating gradient on displaced geometry   9 (of  24) >>
	<< Calculating gradient on displaced geometry  10 (of  24) >>
	<< Calculating gradient on displaced geometry  11 (of  24) >>
	<< Calculating gradient on displaced geometry  12 (of  24) >>
	<< Calculating gradient on displaced geometry  13 (of  24) >>
	<< Calculating gradient on displaced geometry  14 (of  24) >>
	<< Calculating gradient on displaced geometry  15 (of  24) >>
	<< Calculating gradient on displaced geometry  16 (of  24) >>
	<< Calculating gradient on displaced geometry  17 (of  24) >>
	<< Calculating gradient on displaced geometry  18 (of  24) >>
	<< Calculating gradient on displaced geometry  19 (of  24) >>
	<< Calculating gradient on displaced geometry  20 (of  24) >>
	<< Calculating gradient on displaced geometry  21 (of  24) >>
	<< Calculating gradient on displaced geometry  22 (of  24) >>
	<< Calculating gradient on displaced geometry  23 (of  24) >>
	<< Calculating gradient on displaced geometry  24 (of  24) >>

-----------------------
VIBRATIONAL FREQUENCIES
-----------------------

Scaling factor for frequencies =  1.000000000  (already applied!)

     0:       0.00 cm**-1
     1:       0.00 cm**-1
     2:       0.00 cm**-1
     3:       0.00 cm**-1
     4:       0.00 cm**-1
     5:       0.00 cm**-1
     6:     318.06 cm**-1
     7:     965.20 cm**-1
     8:    1015.11 cm**-1
     9:    2148.62 cm**-1
    10:    2383.44 cm**-1
    11:    2535.56 cm**-1


------------
NORMAL MODES
------------

These modes are the Cartesian displacements weighted by the diagonal matrix
M(i,i)=1/sqrt(m[i]) where m[i] is the mass of the displaced atom
Thus, these vectors are normalized but *not* orthogonal

                  0          1          2          3          4          5    
      0       0.000000   0.000000   0.000000   0.000000   0.000000   0.000000
      1       0.000000   0.000000   0.000000   0.000000   0.000000   0.000000
      2       0.000000   0.000000   0.000000   0.000000   0.000000   0.000000
      3       0.000000   0.000000   0.000000   0.000000   0.000000   0.000000
      4       0.000000   0.000000   0.000000   0.000000   0.000000   0.000000
      5       0.000000   0.000000   0.000000   0.000000   0.000000   0.000000
      6       0.000000   0.000000   0.000000   0.000000   0.000000   0.000000
      7       0.000000   0.000000   0.000000   0.000000   0.000000   0.000000
      8       0.000000   0.000000   0.000000   0.000000   0.000000   0.000000
      9       0.000000   0.000000   0.000000   0.000000   0.000000   0.000000
     10       0.000000   0.000000   0.000000   0.000000   0.000000   0.000000
     11       0.000000   0.000000   0.000000   0.000000   0.000000   0.000000
                  6          7          8          9         10         11    
      0       0.000000   0.057695  -0.000000   0.000000   0.104586  -0.000000
      1      -0.000180   0.000000   0.053795  -0.104565   0.000000   0.020188
      2      -0.123688   0.000000  -0.000061   0.000163  -0.000000  -0.000028
      3      -0.000000  -0.774255   0.000002  -0.000000  -0.177868   0.000000
      4       0.000966   0.000001   0.300121   0.899356  -0.000000   0.381909
      5       0.571938  -0.000000  -0.000531  -0.001345   0.000000  -0.000568
      6       0.000074  -0.013732   0.423234   0.116091  -0.637724  -0.563173
      7       0.000769   0.445432  -0.523823   0.276829  -0.268367  -0.331217
      8       0.573405  -0.000644   0.000686  -0.000458   0.000407   0.000480
      9      -0.000074  -0.013734  -0.423234  -0.116091  -0.637724   0.563173
     10       0.000768  -0.445435  -0.523821   0.276829   0.268367  -0.331217
     11       0.573405   0.000644   0.000686  -0.000458  -0.000407   0.000480


-----------
IR SPECTRUM
-----------

 Mode   freq       eps      Int      T**2         TX        TY        TZ
       cm**-1   L/(mol*cm) km/mol    a.u.
----------------------------------------------------------------------------
  6:    318.06   0.072951  368.66  0.071575  (-0.000000  0.000392  0.267534)
  7:    965.20   0.003450   17.43  0.001115  (-0.033398 -0.000000 -0.000000)
  8:   1015.11   0.002530   12.79  0.000778  ( 0.000000 -0.027889  0.000017)
  9:   2148.62   0.013030   65.85  0.001893  (-0.000000  0.043503 -0.000072)
 10:   2383.44   0.012987   65.63  0.001700  (-0.041235 -0.000000  0.000000)
 11:   2535.56   0.000573    2.90  0.000071  ( 0.000000 -0.008400  0.000010)

* The epsilon (eps) is given for a Dirac delta lineshape.
** The dipole moment derivative (T) already includes vibrational overlap.

The first frequency considered to be a vibration is 6
The total number of vibrations considered is 6


--------------------------
THERMOCHEMISTRY AT 298.15K
--------------------------

Temperature         ...   298.15 K
Pressure            ...     1.00 atm
Total Mass          ...    17.03 AMU
Quasi RRHO          ...     True
Cut-Off Frequency   ...     1.00 cm^-1

Throughout the following assumptions are being made:
  (1) The electronic state is orbitally nondegenerate
  (2) There are no thermally accessible electronically excited states
  (3) Hindered rotations indicated by low frequency modes are not
      treated as such but are treated as vibrations and this may
      cause some error
  (4) All equations used are the standard statistical mechanics
      equations for an ideal gas
  (5) All vibrations are strictly harmonic

freq.     318.06  E(vib)   ...       0.25 
freq.     965.20  E(vib)   ...       0.03 
freq.    1015.11  E(vib)   ...       0.02 
freq.    2148.62  E(vib)   ...       0.00 
freq.    2383.44  E(vib)   ...       0.00 
freq.    2535.56  E(vib)   ...       0.00 

------------
INNER ENERGY
------------

The inner energy is: U= E(el) + E(ZPE) + E(vib) + E(rot) + E(trans)
    E(el)   - is the total energy from the electronic structure calculation
              = E(kin-el) + E(nuc-el) + E(el-el) + E(nuc-nuc)
    E(ZPE)  - the the zero temperature vibrational energy from the frequency calculation
    E(vib)  - the the finite temperature correction to E(ZPE) due to population
              of excited vibrational states
    E(rot)  - is the rotational thermal energy
    E(trans)- is the translational thermal energy

Summary of contributions to the inner energy U:
Electronic energy                ...    -55.88668296 Eh
Zero point energy                ...      0.02133729 Eh      13.39 kcal/mol
Thermal vibrational correction   ...      0.00047543 Eh       0.30 kcal/mol
Thermal rotational correction    ...      0.00141627 Eh       0.89 kcal/mol
Thermal translational correction ...      0.00141627 Eh       0.89 kcal/mol
-----------------------------------------------------------------------
Total thermal energy                    -55.86203770 Eh


Summary of corrections to the electronic energy:
(perhaps to be used in another calculation)
Total thermal correction                  0.00330797 Eh       2.08 kcal/mol
Non-thermal (ZPE) correction              0.02133729 Eh      13.39 kcal/mol
-----------------------------------------------------------------------
Total correction                          0.02464527 Eh      15.47 kcal/mol


--------
ENTHALPY
--------

The enthalpy is H = U + kB*T
                kB is Boltzmann's constant
Total thermal energy              ...    -55.86203770 Eh 
Thermal Enthalpy correction       ...      0.00094421 Eh       0.59 kcal/mol
-----------------------------------------------------------------------
Total Enthalpy                    ...    -55.86109349 Eh


Note: Rotational entropy computed according to Herzberg 
Infrared and Raman Spectra, Chapter V,1, Van Nostrand Reinhold, 1945 
Point Group:  C2v, Symmetry Number:   2  
Rotational constants in cm-1:     9.697633     9.440232     4.783601 

Vibrational entropy computed according to the QRRHO of S. Grimme
Chem.Eur.J. 2012 18 9955 using a reference frequency of 100.0 cm-1


-------
ENTROPY
-------

The entropy contributions are T*S = T*(S(el)+S(vib)+S(rot)+S(trans))
     S(el)   - electronic entropy
     S(vib)  - vibrational entropy
     S(rot)  - rotational entropy
     S(trans)- translational entropy
The entropies will be listed as multiplied by the temperature to get
units of energy

Electronic entropy                ...      0.00000000 Eh      0.00 kcal/mol
Vibrational entropy               ...      0.00072240 Eh      0.45 kcal/mol
Rotational entropy                ...      0.00598507 Eh      3.76 kcal/mol
Translational entropy             ...      0.01636425 Eh     10.27 kcal/mol
-----------------------------------------------------------------------
Final entropy term                ...      0.02307172 Eh     14.48 kcal/mol

In case the symmetry of your molecule has not been determined correctly
or in case you have a reason to use a different symmetry number we print 
out the resulting rotational entropy values for sn=1,12:

 non-linear molecules -----------------------------------
|  sn= 1 | S(rot)=       0.00663953 Eh      4.17 kcal/mol|
|  sn= 2 | S(rot)=       0.00598507 Eh      3.76 kcal/mol|
|  sn= 3 | S(rot)=       0.00560224 Eh      3.52 kcal/mol|
|  sn= 4 | S(rot)=       0.00533062 Eh      3.35 kcal/mol|
|  sn= 5 | S(rot)=       0.00511993 Eh      3.21 kcal/mol|
|  sn= 6 | S(rot)=       0.00494778 Eh      3.10 kcal/mol|
|  sn= 7 | S(rot)=       0.00480224 Eh      3.01 kcal/mol|
|  sn= 8 | S(rot)=       0.00467616 Eh      2.93 kcal/mol|
|  sn= 9 | S(rot)=       0.00456495 Eh      2.86 kcal/mol|
|  sn=10 | S(rot)=       0.00446547 Eh      2.80 kcal/mol|
|  sn=11 | S(rot)=       0.00437548 Eh      2.75 kcal/mol|
|  sn=12 | S(rot)=       0.00429333 Eh      2.69 kcal/mol|
 linear molecules ---------------------------------------
|  Dinfh | S(rot)=       0.00384798 Eh      2.41 kcal/mol|
|  Cinfv | S(rot)=       0.00450244 Eh      2.83 kcal/mol|
 --------------------------------------------------------


-------------------
GIBBS FREE ENERGY
-------------------

The Gibbs free energy is G = H - T*S

Total enthalpy                    ...    -55.86109349 Eh 
Total entropy correction          ...     -0.02307172 Eh    -14.48 kcal/mol
-----------------------------------------------------------------------
Final Gibbs free energy         ...    -55.88416521 Eh

For completeness - the Gibbs free energy minus the electronic energy
G-E(el)                           ...      0.00251775 Eh      1.58 kcal/mol



--------------------------------
SUGGESTED CITATIONS FOR THIS RUN
--------------------------------

Below you find a list of papers that are relevant to this ORCA run
We neither can nor want to force you to cite these papers, but we appreciate if you do
You receive ORCA, which is the product of decades of hard work by many enthusiastic individuals, for free
The only thing we kindly ask in return is that you cite our papers,
We deeply appreciate it, if you show your appreciation for ORCA by not just citing the generic ORCA reference.

Please note that relegating all ORCA citations to the supporting information does *not* help us.
SI sections are not indexed - citations you put there will not count into any citation statistics
But we need these citations in order to attract the funding resources that allow us to do what we are doing

Therefore, if you are a happy ORCA user, please consider citing a few of the papers listed below in the main body of your paper

In addition to the list printed below, the program has created the file NH3_TDDFT-LDA.bibtex that contains the list in bibtex format
You can import this file easily into all common literature databanks and citation aid programs


List of essential papers. We consider these as the minimum necessary citations

  1. Neese,F.
     Software update: the ORCA program system, version 5.0
     WIRES Comput. Molec. Sci., 2022 12(1)e1606
     doi.org/10.1002/wcms.1606

List of papers to cite with high priority. The work reported in these papers was absolutely
necessary for this run to complete.
Our perspective: the developers of density functionals and basis sets usually get cited in chemistry papers
Good! But without the algorithms to do something with them, the functionals or basis sets would not do anything.
Hence, in our opinion, the algorithm design and method developments papers are equally worthy of getting cited

  1. Neese,F.; Olbrich,G.
     Efficient use of the resolution of the identity approximation in time-dependent density functional calculations with hybrid density functionals
     Chem. Phys. Lett., 2002 362 170-178
     doi.org/10.1016/s0009-2614(02)01053-9
  2. Neese,F.
     An improvement of the resolution of the identity approximation for the formation of the Coulomb matrix
     J. Comp. Chem., 2003 24(14)1740-1747
     doi.org/10.1002/jcc.10318
  3. Petrenko,T.; Kossmann,S.; Neese,F.
     Efficient time-dependent density functional theory approximations for hybrid density functionals: Analytical gradients and parallelization
     J. Chem. Phys., 2011 134 054116
     doi.org/10.1063/1.3533441
  4. Bykov,D.; Petrenko,T.; Izsak,R.; Kossmann,S.; Becker,U.; Valeev,E.; Neese,F.
     Efficient implementation of the analytic second derivatives of Hartree-Fock and hybrid DFT energies: a detailed analysis of different approximations
     Molec. Phys., 2015 113 1961-1977
     doi.org/10.1080/00268976.2015.1025114
  5. Neese,F.
     The SHARK Integral Generation and Digestion System
     J. Comp. Chem., 2022  1-16
     doi.org/10.1002/jcc.26942

List of suggested additional citations. These are papers that are important in the 'surrounding' of 
of this run, or papers that preceded the highly important papers. If you like your results we are grateful for a citation.

  1. Neese,F.
     The ORCA program system
     WIRES Comput. Molec. Sci., 2012 2(1)73-78
     doi.org/10.1002/wcms.81
  2. Neese,F.
     Software update: the ORCA program system, version 4.0
     WIRES Comput. Molec. Sci., 2018 8(1)1-6
     doi.org/10.1002/wcms.1327
  3. Neese,F.; Wennmohs,F.; Becker,U.; Riplinger,C.
     The ORCA quantum chemistry program package
     J. Chem. Phys., 2020 152 Art. No. L224108
     doi.org/10.1063/5.0004608

List of optional additional citations

  1. Neese,F.
     Approximate second-order SCF convergence for spin unrestricted wavefunctions
     Chem. Phys. Lett., 2000 325(1-3)93-98
     doi.org/10.1016/s0009-2614(00)00662-x

Timings for individual modules:

Sum of individual times          ...      279.074 sec (=   4.651 min)
Startup calculation              ...        2.517 sec (=   0.042 min)   0.9 %
SCF iterations                   ...       16.964 sec (=   0.283 min)   6.1 %
Property integrals               ...        2.012 sec (=   0.034 min)   0.7 %
Property calculations            ...        0.120 sec (=   0.002 min)   0.0 %
CIS module                       ...       99.683 sec (=   1.661 min)  35.7 %
Geometry relaxation              ...        0.184 sec (=   0.003 min)   0.1 %
Numerical frequency calculation  ...      157.594 sec (=   2.627 min)  56.5 %
                             ****ORCA TERMINATED NORMALLY****
TOTAL RUN TIME: 0 days 0 hours 4 minutes 33 seconds 420 msec
