
                                 *****************
                                 * O   R   C   A *
                                 *****************

                                            #,                                       
                                            ###                                      
                                            ####                                     
                                            #####                                    
                                            ######                                   
                                           ########,                                 
                                     ,,################,,,,,                         
                               ,,#################################,,                 
                          ,,##########################################,,             
                       ,#########################################, ''#####,          
                    ,#############################################,,   '####,        
                  ,##################################################,,,,####,       
                ,###########''''           ''''###############################       
              ,#####''   ,,,,##########,,,,          '''####'''          '####       
            ,##' ,,,,###########################,,,                        '##       
           ' ,,###''''                  '''############,,,                           
         ,,##''                                '''############,,,,        ,,,,,,###''
      ,#''                                            '''#######################'''  
     '                                                          ''''####''''         
             ,#######,   #######,   ,#######,      ##                                
            ,#'     '#,  ##    ##  ,#'     '#,    #''#        ,####,   ,####,        
            ##       ##  ##   ,#'  ##            #'  '#       #'       #'  '#        
            ##       ##  #######   ##           ,######,      #####,   #    #        
            '#,     ,#'  ##    ##  '#,     ,#' ,#      #,     #,   #   #,  ,#        
             '#######'   ##     ##  '#######'  #'      '#     '####' # '####'        



                #########################################################
                #                        -***-                          #
                #          Department of theory and spectroscopy        #
                #                                                       #
                #                      Frank Neese                      #
                #                                                       #
                #     Directorship, Architecture, Infrastructure        #
                #                    SHARK, DRIVERS                     #
                #        Core code/Algorithms in most modules           #
                #                                                       #
                #        Max Planck Institute fuer Kohlenforschung      #
                #                Kaiser Wilhelm Platz 1                 #
                #                 D-45470 Muelheim/Ruhr                 #
                #                      Germany                          #
                #                                                       #
                #                  All rights reserved                  #
                #                        -***-                          #
                #########################################################


                         Program Version 6.0.1  -  RELEASE   -


 With contributions from (in alphabetic order):
[Max-Planck-Institut fuer Kohlenforschung]                               
  Daniel Aravena         : Magnetic Suceptibility                        
  Michael Atanasov       : Ab Initio Ligand Field Theory (pilot matlab implementation)
  Alexander A. Auer      : GIAO ZORA, VPT2 properties, NMR spectrum      
  Ute Becker             : All parallelization in ORCA, NUMFREQ, NUMCALC 
  Giovanni Bistoni       : ED, misc. LED, open-shell LED, HFLD           
  Martin Brehm           : Molecular dynamics                            
  Dmytro Bykov           : pre 5.0 version of the SCF Hessian            
  Marcos Casanova-Páez   : Triplet and SCS-CIS(D). UHF-(DLPNO)-IP/EA/STEOM-CCSD. UHF-CVS-IP/STEOM-CCSD   
  Vijay G. Chilkuri      : MRCI spin determinant printing, contributions to CSF-ICE 
  Pauline Colinet        : FMM embedding                                 
  Dipayan Datta          : RHF DLPNO-CCSD density                        
  Achintya Kumar Dutta   : EOM-CC, STEOM-CC                              
  Nicolas Foglia         : Exact transition moments, OPA infrastructure, MCD improvements    
  Dmitry Ganyushin       : Spin-Orbit,Spin-Spin,Magnetic field MRCI      
  Miquel Garcia-Rates    : C-PCM and meta-GGA Hessian, CCSD/C-PCM, Gaussian charge scheme 
  Tiago L. C. Gouveia    : GS-ROHF, GS-ROCIS                             
  Yang Guo               : DLPNO-NEVPT2, F12-NEVPT2, CIM, IAO-localization        
  Andreas Hansen         : Spin unrestricted coupled pair/coupled cluster methods 
  Ingolf Harden          : AUTO-CI MPn and infrastructure                
  Benjamin Helmich-Paris : MC-RPA, TRAH-(SCF,CASSCF), AVAS, COSX integrals, SCF dyn. polar. 
  Lee Huntington         : MR-EOM, pCC                                   
  Robert Izsak           : Overlap fitted RIJCOSX, COSX-SCS-MP3, EOM     
  Riya Kayal             : Wick's Theorem for AUTO-CI, AUTO-CI UHF-CCSDT 
  Emily Kempfer          : AUTO-CI, RHF CISDT and CCSDT                  
  Christian Kollmar      : KDIIS, OOCD, Brueckner-CCSD(T), CCSD density, CASPT2, CASPT2-K, improved NEVPT2 
  Axel Koslowski         : Symmetry handling                             
  Simone Kossmann        : meta-GGA functionals, TD-DFT gradient, OOMP2, (MP2 Hessian; deprecated post 5.0) 
  Lucas Lang             : DCDCAS                                        
  Marvin Lechner         : AUTO-CI (C++ implementation), FIC-MRCC        
  Spencer Leger          : CASSCF response                               
  Dagmar Lenk            : GEPOL surface, SMD, ORCA-2-JSON               
  Dimitrios Liakos       : Extrapolation schemes; Compound Job, initial MDCI parallelization 
  Dimitrios Manganas     : Further ROCIS development; embedding schemes. LFT, Crystal Embedding 
  Dimitrios Pantazis     : SARC Basis sets                               
  Anastasios Papadopoulos: AUTO-CI, single reference methods and gradients 
  Taras Petrenko         : pre 6.0 DFT Hessian and TD-DFT gradient, (ASA, deprecated), ECA, 1-Electron XAS/XES, NRVS 
  Peter Pinski           : DLPNO-MP2, DLPNO-MP2 Gradient                 
  Christoph Reimann      : Effective Core Potentials                     
  Marius Retegan         : Local ZFS, SOC                                
  Christoph Riplinger    : Optimizer, TS searches, QM/MM, DLPNO-CCSD(T), (RO)-DLPNO pert. Triples 
  Michael Roemelt        : Original ROCIS implementation                 
  Masaaki Saitow         : Open-shell DLPNO-CCSD energy and density      
  Barbara Sandhoefer     : DKH picture change effects                    
  Kantharuban Sivalingam : CASSCF convergence/infrastructure, NEVPT2 and variants, FIC-MRCI 
  Bernardo de Souza      : ESD, SOC TD-DFT                               
  Georgi L. Stoychev     : AutoAux, RI-MP2 NMR, DLPNO-MP2 response, X2C  
  Van Anh Tran           : RI-MP2 g-tensors                              
  Willem Van den Heuvel  : Paramagnetic NMR                              
  Zikuan Wang            : NOTCH, Electric field optimization            
  Frank Wennmohs         : Technical directorship and infrastructure     
  Hang Xu                : AUTO-CI-Response properties                   
                                                                         
[FACCTs GmbH]                                                            
  Markus Bursch, Miquel Garcia-Rates, Christoph Riplinger, Bernardo de Souza, Georgi L. Stoychev 
                                                                 
  APM, Basis sets (HGBS, AHGBS, def-TZVP (Ac-Lr), def2-XVPD (La-Lu)), CI-OPT, improved COSX, DLPNO-Multilevel,           
  DOCKER, DRACO, updates on ESD, GOAT, IRC, LR-CPCM, MBIS, meta-GGA TD-DFT gradient, ML-optimized integration grids, 
  MM, NACMEs, nearIR, NEB, NEB-TS, NL-DFT gradient (VV10), 2- and 3-layer-ONIOM, interface openCOSMO-RS, QMMM,   
  Crystal-QMMM, SF, symmetry and pop. for TD-DFT, r2SCAN hybrids, SOLVATOR                                   
                                                                         
[Other institutions]                                                     
  V. Asgeirsson          : NEB                                           
  Christoph Bannwarth    : sTDA-DFT, sTD-DFT, PBEh-3c, B97-3c, D3        
  Sebastian Ehlert       : rSCAN, r2SCAN, r2SCAN-3c, D4, dhf basis sets  
  Marvin Friede          : D4 for Fr, Ra, Ac-Lr                          
  Lars Goerigk           : TD-DFT with DH, B97 family of functionals     
  Stefan Grimme          : VdW corrections, initial TS optimization, DFT functionals, gCP, sTDA/sTD-DF 
  Waldemar Hujo          : DFT-NL                                        
  H. Jonsson             : NEB                                           
  Holger Kruse           : gCP                                           
  Marcel Mueller         : wB97X-3c, vDZP basis set                      
  Hagen Neugebauer       : wr2SCAN                                       
  Tobias Risthaus        : range-separated hybrid DFT                    
  Lukas Wittmann         : regularized MP2, r2SCAN double-hybrids, wr2SCAN        
                                                                         
We gratefully acknowledge several colleagues who have allowed us to      
interface, adapt or use parts of their codes:                            
  Ed Valeev, F. Pavosevic, A. Kumar             : LibInt (2-el integral package), F12 methods 
  Garnet Chan, S. Sharma, J. Yang, R. Olivares  : DMRG                   
  Ulf Ekstrom                                   : XCFun DFT Library      
  Mihaly Kallay                                 : mrcc  (arbitrary order and MRCC methods)
  Frank Weinhold                                : gennbo (NPA and NBO analysis)           
  Simon Mueller                                 : openCOSMO-RS                            
  Christopher J. Cramer and Donald G. Truhlar   : smd solvation model                     
  S Lehtola, MJT Oliveira, MAL Marques          : LibXC Library                           
  Liviu Ungur et al                             : ANISO software                          


 Your calculation uses the libint2 library for the computation of 2-el integrals
 For citations please refer to: http://libint.valeyev.net

 Your ORCA version has been built with support for libXC version: 6.2.2
 For citations please refer to: https://libxc.gitlab.io

 This ORCA versions uses:
   CBLAS   interface :  Fast vector & matrix operations
   LAPACKE interface :  Fast linear algebra routines
   Shared memory     :  Shared parallel matrices


NOTE: MaxCore=4000 MB was set to SCF,MP2,MDCI,CIPSI,MRCI and CIS
      => If you want to overwrite this, your respective input block should be placed after the MaxCore statement
Warning: RI is on but no J-basis has been assigned. Assigning Def2/J (nothing to worry about!)
================================================================================

----- Orbital basis set information -----
Your calculation utilizes the basis: def2-TZVPP
   F. Weigend and R. Ahlrichs, Phys. Chem. Chem. Phys. 7, 3297 (2005).

----- AuxJ basis set information -----
Your calculation utilizes the auxiliary basis: def2/J
   F. Weigend, Phys. Chem. Chem. Phys. 8, 1057 (2006).

================================================================================
                                        WARNINGS
                       Please study these warnings very carefully!
================================================================================


WARNING: Geometry Optimization
  ===> : Switching off AutoStart
         For restart on a previous wavefunction, please use MOREAD

================================================================================
                                       INPUT FILE
================================================================================
NAME = C2H4_Opt_Geom-HFS.inp
|  1> ! HFS def2-TZVPP Opt TightOpt VeryTightSCF
|  2> 
|  3> %scf
|  4>    MaxIter 400          # Máximo de iteraciones permitidas para el SCF
|  5> end
|  6> 
|  7> %geom
|  8>    TolRMSD 1.0e-5
|  9>    TolMAXD 1.0e-4
| 10>    TolRMSG 1.0e-5
| 11>    TolMAXG 1.0e-4
| 12> end
| 13> 
| 14> %pal
| 15>    nprocs 1
| 16> end
| 17> 
| 18> 
| 19> %MaxCore 4000            # Memoria máxima por núcleo (en MB)
| 20> 
| 21> * xyz 0 1
| 22> C       0.66559385    0.00000000    0.00000000
| 23> C      -0.66559385    0.00000000    0.00000000
| 24> H       1.23167063   -0.92149339    0.00000000
| 25> H       1.23167063    0.92149339    0.00000000
| 26> H      -1.23167063   -0.92149339    0.00000000
| 27> H      -1.23167063    0.92149339    0.00000000
| 28> **                         ****END OF INPUT****
================================================================================

                       *****************************
                       * Geometry Optimization Run *
                       *****************************

Geometry optimization settings:
Update method            Update   .... BFGS
Choice of coordinates    CoordSys .... (2022) Redundant Internals
Initial Hessian          InHess   .... Almloef's Model
Max. no of cycles        MaxIter  .... 50

Convergence Tolerances:
Energy Change            TolE     ....  1.0000e-06 Eh
Max. Gradient            TolMAXG  ....  1.0000e-04 Eh/bohr
RMS Gradient             TolRMSG  ....  1.0000e-05 Eh/bohr
Max. Displacement        TolMAXD  ....  1.0000e-04 bohr
RMS Displacement         TolRMSD  ....  1.0000e-05 bohr
Strict Convergence                .... False

------------------------------------------------------------------------------
                        ORCA OPTIMIZATION COORDINATE SETUP
------------------------------------------------------------------------------

The optimization will be done in redundant internal coordinates (2022)
Making redundant internal coordinates   ...  (2022 redundants) done
Evaluating the initial hessian          ...  (Almloef) done
Evaluating the coordinates              ...  done
Calculating the B-matrix                .... done
Calculating the G-matrix                .... done
Diagonalizing the G-matrix              .... done
The first mode is                       ....    3
The number of degrees of freedom        ....   12

    -----------------------------------------------------------------
                    Redundant Internal Coordinates


    -----------------------------------------------------------------
         Definition                    Initial Value    Approx d2E/dq
    -----------------------------------------------------------------
      1. B(C   1,C   0)                  1.3312         0.775479   
      2. B(H   2,C   0)                  1.0815         0.371553   
      3. B(H   3,C   0)                  1.0815         0.371553   
      4. B(H   4,C   1)                  1.0815         0.371553   
      5. B(H   5,C   1)                  1.0815         0.371553   
      6. A(H   2,C   0,H   3)          116.8749         0.293720   
      7. A(C   1,C   0,H   2)          121.5626         0.368593   
      8. A(C   1,C   0,H   3)          121.5626         0.368593   
      9. A(H   4,C   1,H   5)          116.8749         0.293720   
     10. A(C   0,C   1,H   5)          121.5626         0.368593   
     11. A(C   0,C   1,H   4)          121.5626         0.368593   
     12. D(H   4,C   1,C   0,H   3)    180.0000         0.043173   
     13. D(H   5,C   1,C   0,H   2)    180.0000         0.043173   
     14. D(H   5,C   1,C   0,H   3)      0.0000         0.043173   
     15. D(H   4,C   1,C   0,H   2)      0.0000         0.043173   
    -----------------------------------------------------------------

Number of atoms                         .... 6
Number of degrees of freedom            .... 15


         *************************************************************
         *                GEOMETRY OPTIMIZATION CYCLE   1            *
         *************************************************************
---------------------------------
CARTESIAN COORDINATES (ANGSTROEM)
---------------------------------
  C      0.665594    0.000000    0.000000
  C     -0.665594    0.000000    0.000000
  H      1.231671   -0.921493    0.000000
  H      1.231671    0.921493    0.000000
  H     -1.231671   -0.921493    0.000000
  H     -1.231671    0.921493    0.000000

----------------------------
CARTESIAN COORDINATES (A.U.)
----------------------------
  NO LB      ZA    FRAG     MASS         X           Y           Z
   0 C     6.0000    0    12.011    1.257790    0.000000    0.000000
   1 C     6.0000    0    12.011   -1.257790    0.000000    0.000000
   2 H     1.0000    0     1.008    2.327520   -1.741370    0.000000
   3 H     1.0000    0     1.008    2.327520    1.741370    0.000000
   4 H     1.0000    0     1.008   -2.327520   -1.741370    0.000000
   5 H     1.0000    0     1.008   -2.327520    1.741370    0.000000

--------------------------------
INTERNAL COORDINATES (ANGSTROEM)
--------------------------------
 C      0   0   0     0.000000000000     0.00000000     0.00000000
 C      1   0   0     1.331187700000     0.00000000     0.00000000
 H      1   2   0     1.081477225220   121.56255916     0.00000000
 H      1   2   3     1.081477225220   121.56255916   180.00000121
 H      2   1   3     1.081477225220   121.56255916     0.00000000
 H      2   1   3     1.081477225220   121.56255916   180.00000121

---------------------------
INTERNAL COORDINATES (A.U.)
---------------------------
 C      0   0   0     0.000000000000     0.00000000     0.00000000
 C      1   0   0     2.515580185845     0.00000000     0.00000000
 H      1   2   0     2.043695775738   121.56255916     0.00000000
 H      1   2   3     2.043695775738   121.56255916   180.00000121
 H      2   1   3     2.043695775738   121.56255916     0.00000000
 H      2   1   3     2.043695775738   121.56255916   180.00000121

---------------------
BASIS SET INFORMATION
---------------------
There are 2 groups of distinct atoms

 Group   1 Type C   : 11s6p2d1f contracted to 5s3p2d1f pattern {62111/411/11/1}
 Group   2 Type H   : 5s2p1d contracted to 3s2p1d pattern {311/11/1}

Atom   0C    basis set group =>   1
Atom   1C    basis set group =>   1
Atom   2H    basis set group =>   2
Atom   3H    basis set group =>   2
Atom   4H    basis set group =>   2
Atom   5H    basis set group =>   2
---------------------------------
AUXILIARY/J BASIS SET INFORMATION
---------------------------------
There are 2 groups of distinct atoms

 Group   1 Type C   : 12s5p4d2f1g contracted to 6s4p3d1f1g pattern {711111/2111/211/2/1}
 Group   2 Type H   : 5s2p1d contracted to 3s1p1d pattern {311/2/1}

Atom   0C    basis set group =>   1
Atom   1C    basis set group =>   1
Atom   2H    basis set group =>   2
Atom   3H    basis set group =>   2
Atom   4H    basis set group =>   2
Atom   5H    basis set group =>   2
------------------------------------------------------------------------------
                             ORCA STARTUP CALCULATIONS
                           -- RI-GTO INTEGRALS CHOSEN --
------------------------------------------------------------------------------
------------------------------------------------------------------------------
                   ___                                                        
                  /   \      - P O W E R E D   B Y -                         
                 /     \                                                     
                 |  |  |   _    _      __       _____    __    __             
                 |  |  |  | |  | |    /  \     |  _  \  |  |  /  |          
                  \  \/   | |  | |   /    \    | | | |  |  | /  /          
                 / \  \   | |__| |  /  /\  \   | |_| |  |  |/  /          
                |  |  |   |  __  | /  /__\  \  |    /   |      \           
                |  |  |   | |  | | |   __   |  |    \   |  |\   \          
                \     /   | |  | | |  |  |  |  | |\  \  |  | \   \       
                 \___/    |_|  |_| |__|  |__|  |_| \__\ |__|  \__/        
                                                                              
                      - O R C A' S   B I G   F R I E N D -                    
                                      &                                       
                       - I N T E G R A L  F E E D E R -                       
                                                                              
 v1 FN, 2020, v2 2021, v3 2022-2024                                           
------------------------------------------------------------------------------


----------------------
SHARK INTEGRAL PACKAGE
----------------------

Number of atoms                             ...      6
Number of basis functions                   ...    118
Number of shells                            ...     46
Maximum angular momentum                    ...      3
Integral batch strategy                     ... SHARK/LIBINT Hybrid
RI-J (if used) integral strategy            ... SPLIT-RIJ (Revised 2003 algorithm where possible)
Printlevel                                  ...      1
Contraction scheme used                     ... SEGMENTED contraction
Prescreening option                         ... SCHWARTZ
   Thresh                                   ... 1.000e-12
   Tcut                                     ... 1.000e-14
   Tpresel                                  ... 1.000e-14 
Coulomb Range Separation                    ... NOT USED
Exchange Range Separation                   ... NOT USED
Multipole approximations                    ... NOT USED
Finite Nucleus Model                        ... NOT USED
CABS basis                                  ... NOT available
Auxiliary Coulomb fitting basis             ... AVAILABLE
   # of basis functions in Aux-J            ...    142
   # of shells in Aux-J                     ...     50
   Maximum angular momentum in Aux-J        ...      4
Auxiliary J/K fitting basis                 ... NOT available
Auxiliary Correlation fitting basis         ... NOT available
Auxiliary 'external' fitting basis          ... NOT available

Checking pre-screening integrals            ... done (  0.0 sec) Dimension = 46
Check shell pair data                       ... done (  0.0 sec)
Shell pair information
Shell pair cut-off parameter TPreSel        ...   1.0e-14
Total number of shell pairs                 ...      1081
Shell pairs after pre-screening             ...      1080
Total number of primitive shell pairs       ...      2684
Primitive shell pairs kept                  ...      2469
          la=0 lb=0:    252 shell pairs
          la=1 lb=0:    308 shell pairs
          la=1 lb=1:    105 shell pairs
          la=2 lb=0:    176 shell pairs
          la=2 lb=1:    112 shell pairs
          la=2 lb=2:     36 shell pairs
          la=3 lb=0:     44 shell pairs
          la=3 lb=1:     28 shell pairs
          la=3 lb=2:     16 shell pairs
          la=3 lb=3:      3 shell pairs

Calculating one electron integrals          ... done (  0.0 sec)
Calculating RI/J V-Matrix + Cholesky decomp.... done (  0.0 sec)
Calculating Nuclear repulsion               ... done (  0.0 sec) ENN=     33.423497764107 Eh

Diagonalization of the overlap matrix:
Smallest eigenvalue                        ... 1.876e-04
Time for diagonalization                   ...    0.002 sec
Threshold for overlap eigenvalues          ... 1.000e-07
Number of eigenvalues below threshold      ... 0
Time for construction of square roots      ...    0.001 sec
Total time needed                          ...    0.007 sec

-------------------
DFT GRID GENERATION
-------------------

General Integration Accuracy     IntAcc      ... 4.388
Radial Grid Type                 RadialGrid  ... OptM3 with GC (2021)
Angular Grid (max. ang.)         AngularGrid ... 4 (Lebedev-302)
Angular grid pruning method      GridPruning ... 4 (adaptive)
Weight generation scheme         WeightScheme... mBecke (2022)
Basis function cutoff            BFCut       ... 1.0000e-12
Integration weight cutoff        WCut        ... 1.0000e-14
Partially contracted basis set               ... off
Rotationally invariant grid construction     ... off
Angular grids for H and He will be reduced by one unit

Total number of grid points                  ...    25284
Total number of batches                      ...      399
Average number of points per batch           ...       63
Average number of grid points per atom       ...     4214
Initializing property integral containers    ... done (  0.0 sec)

SHARK setup successfully completed in   0.2 seconds

Maximum memory used throughout the entire STARTUP-calculation: 13.8 MB
-------------------------------------------------------------------------------
                                 ORCA GUESS
                   Start orbitals & Density for SCF / CASSCF
-------------------------------------------------------------------------------

------------
SCF SETTINGS
------------
Hamiltonian:
 Density Functional     Method          .... DFT(GTOs)
 Exchange Functional    Exchange        .... Slater
   X-Alpha parameter    XAlpha          ....  0.666667
 Correlation Functional Correlation     .... No Correlation
 Gradients option       PostSCFGGA      .... off
 RI-approximation to the Coulomb term is turned on
   Number of AuxJ basis functions       .... 142


General Settings:
 Integral files         IntName         .... C2H4_Opt_Geom-HFS
 Hartree-Fock type      HFTyp           .... RHF
 Total Charge           Charge          ....    0
 Multiplicity           Mult            ....    1
 Number of Electrons    NEL             ....   16
 Basis Dimension        Dim             ....  118
 Nuclear Repulsion      ENuc            ....     33.4234977641 Eh

Convergence Acceleration:
 AO-DIIS                CNVDIIS         .... on
   Start iteration      DIISMaxIt       ....    12
   Startup error        DIISStart       ....  0.200000
   # of expansion vecs  DIISMaxEq       ....     5
   Bias factor          DIISBfac        ....   1.050
   Max. coefficient     DIISMaxC        ....  10.000
 MO-DIIS                CNVKDIIS        .... off
 Trust-Rad. Augm. Hess. CNVTRAH         .... auto
   Auto Start mean grad. ratio tolernc. ....  1.125000
   Auto Start start iteration           ....    50
   Auto Start num. interpolation iter.  ....    10
   Max. Number of Micro iterations      ....    24
   Max. Number of Macro iterations      .... Maxiter - #DIIS iter
   Number of Davidson start vectors     ....     2
   Converg. threshold    (grad. norm)   ....   2.000e-06
   Grad. Scal. Fac. for Micro threshold ....   0.100
   Minimum threshold for Micro iter.    ....   1.000e-02
   NR start threshold (gradient norm)   ....   1.000e-04
   Initial trust radius                 ....   0.400
   Minimum AH scaling param. (alpha)    ....   1.000
   Maximum AH scaling param. (alpha)    .... 1000.000
   Quad. conv. algorithm                .... NR
   White noise on init. David. guess    .... on
   Maximum white noise                  ....   0.010
   Pseudo random numbers                .... off
   Inactive MOs                         .... canonical
   Orbital update algorithm             .... Taylor
   Preconditioner                       .... Diag
   Full preconditioner red. dimension   ....   250
 SOSCF                  CNVSOSCF        .... on
   Start iteration      SOSCFMaxIt      ....   150
   Startup grad/error   SOSCFStart      ....  0.003300
   Hessian update       SOSCFHessUp     .... L-BFGS
 Level Shifting         CNVShift        .... on
   Level shift para.    LevelShift      ....    0.2500
   Turn off err/grad.   ShiftErr        ....    0.0010
 Zerner damping         CNVZerner       .... off
 Static damping         CNVDamp         .... on
   Fraction old density DampFac         ....    0.7000
   Max. Damping (<1)    DampMax         ....    0.9800
   Min. Damping (>=0)   DampMin         ....    0.0000
   Turn off err/grad.   DampErr         ....    0.1000

SCF Procedure:
 Maximum # iterations   MaxIter         ....   400
 SCF integral mode      SCFMode         .... Direct
   Integral package                     .... SHARK and LIBINT hybrid scheme
 Reset frequency        DirectResetFreq ....    20
 Integral Threshold     Thresh          ....  1.000e-12 Eh
 Primitive CutOff       TCut            ....  1.000e-14 Eh

Convergence Tolerance:
 Convergence Check Mode ConvCheckMode   .... Total+1el-Energy
 Convergence forced     ConvForced      .... 0
 Energy Change          TolE            ....  1.000e-09 Eh
 1-El. energy change                    ....  1.000e-06 Eh
 Orbital Gradient       TolG            ....  2.000e-06
 Orbital Rotation angle TolX            ....  2.000e-06
 DIIS Error             TolErr          ....  1.000e-08

------------------------------
INITIAL GUESS: MODEL POTENTIAL
------------------------------
Loading Hartree-Fock densities                     ... done
Calculating cut-offs                               ... done
Initializing the effective Hamiltonian             ... done
Setting up the integral package (SHARK)            ... done
Starting the Coulomb interaction                   ... done (   0.0 sec)
Making the grid                                    ... done (   0.0 sec)
Mapping shells                                     ... done
Starting the XC term evaluation                    ... done (   0.1 sec)
  promolecular density results
     # of electrons  =     15.999376458
     EX              =    -10.247389051
     EC              =      0.000000000
     EX+EC           =    -10.247389051
Transforming the Hamiltonian                       ... done (   0.0 sec)
Diagonalizing the Hamiltonian                      ... done (   0.0 sec)
Back transforming the eigenvectors                 ... done (   0.0 sec)
Now organizing SCF variables                       ... done
                      ------------------
                      INITIAL GUESS DONE (   0.1 sec)
                      ------------------
             **** ENERGY FILE WAS UPDATED (C2H4_Opt_Geom-HFS.en.tmp) ****
Finished Guess after   0.2 sec
Maximum memory used throughout the entire GUESS-calculation: 9.4 MB

-------------------------------------------------------------------------------------------
                                      ORCA LEAN-SCF
                              memory conserving SCF solver
-------------------------------------------------------------------------------------------

----------------------------------------D-I-I-S--------------------------------------------
Iteration    Energy (Eh)           Delta-E    RMSDP     MaxDP     DIISErr   Damp  Time(sec)
-------------------------------------------------------------------------------------------
               ***  Starting incremental Fock matrix formation  ***
    1    -66.0749687220563828     0.00e+00  1.37e-02  3.78e-01  1.22e+00  0.700   0.1
    2    -66.4276850760951163    -3.53e-01  1.23e-02  3.30e-01  7.83e-01  0.700   0.1
    3    -66.5166916514514526    -8.90e-02  3.12e-03  5.64e-02  5.02e-01  0.700   0.1
    4    -66.5858140001700463    -6.91e-02  2.75e-03  7.37e-02  3.28e-01  0.700   0.1
    5    -66.6424567196662849    -5.66e-02  3.15e-03  8.69e-02  2.16e-01  0.700   0.2
                               ***Turning on AO-DIIS***
    6    -66.6804432392673618    -3.80e-02  2.35e-03  6.43e-02  1.43e-01  0.700   0.2
    7    -66.7064026815858995    -2.60e-02  1.45e-03  3.87e-02  9.96e-02  0.700   0.2
    8    -66.7246392289001449    -1.82e-02  2.31e-03  5.64e-02  6.84e-02  0.000   0.1
    9    -66.7669991303079087    -4.24e-02  3.98e-04  7.67e-03  7.76e-03  0.000   0.1
                              *** Initializing SOSCF ***
---------------------------------------S-O-S-C-F--------------------------------------
Iteration    Energy (Eh)           Delta-E    RMSDP     MaxDP     MaxGrad    Time(sec)
--------------------------------------------------------------------------------------
   10    -66.7671162972005163    -1.17e-04  5.86e-05  1.10e-03  2.16e-03     0.1
               *** Restarting incremental Fock matrix formation ***
   11    -66.7671287775224584    -1.25e-05  3.38e-05  9.46e-04  1.10e-04     0.1
   12    -66.7671285815255544     1.96e-07  3.55e-05  9.08e-04  1.97e-04     0.1
   13    -66.7671289393038876    -3.58e-07  6.16e-06  1.20e-04  5.73e-05     0.2
   14    -66.7671289425874193    -3.28e-09  2.65e-06  3.92e-05  5.00e-05     0.1
   15    -66.7671289674806303    -2.49e-08  2.18e-07  4.65e-06  8.02e-07     0.1
   16    -66.7671289674535728     2.71e-11  3.71e-08  5.61e-07  2.40e-07     0.1
                 **** Energy Check signals convergence ****

               *****************************************************
               *                     SUCCESS                       *
               *           SCF CONVERGED AFTER  16 CYCLES          *
               *****************************************************

             **** ENERGY FILE WAS UPDATED (C2H4_Opt_Geom-HFS.en.tmp) ****

----------------
TOTAL SCF ENERGY
----------------

Total Energy       :        -66.76712896745357 Eh           -1816.82594 eV

Components:
Nuclear Repulsion  :         33.42349776410668 Eh             909.49961 eV
Electronic Energy  :       -100.19062673156026 Eh           -2726.32556 eV
One Electron Energy:       -165.63152111514327 Eh           -4507.06282 eV
Two Electron Energy:         65.44089438358301 Eh            1780.73727 eV

Virial components:
Potential Energy   :       -136.18274077938497 Eh           -3705.72077 eV
Kinetic Energy     :         69.41561181193140 Eh            1888.89483 eV
Virial Ratio       :          1.96184600588621

DFT components:
N(Alpha)           :        0.000000000000 electrons
N(Beta)            :        0.000000000000 electrons
N(Total)           :        0.000000000000 electrons
E(X)               :        0.000000000000 Eh       
E(C)               :        0.000000000000 Eh       
E(XC)              :        0.000000000000 Eh       

---------------
SCF CONVERGENCE
---------------

  Last Energy change         ...   -2.7057e-11  Tolerance :   1.0000e-09
  Last MAX-Density change    ...    5.6080e-07  Tolerance :   1.0000e-08
  Last RMS-Density change    ...    3.7127e-08  Tolerance :   1.0000e-09
  Last DIIS Error            ...    2.1607e-03  Tolerance :   1.0000e-08
  Last Orbital Gradient      ...    2.4017e-07  Tolerance :   2.0000e-06
  Last Orbital Rotation      ...    4.7148e-07  Tolerance :   2.0000e-06


----------------
ORBITAL ENERGIES
----------------

  NO   OCC          E(Eh)            E(eV) 
   0   2.0000      -8.301587      -225.8977 
   1   2.0000      -8.300717      -225.8740 
   2   2.0000      -0.362826        -9.8730 
   3   2.0000      -0.200881        -5.4663 
   4   2.0000      -0.130107        -3.5404 
   5   2.0000      -0.069544        -1.8924 
   6   2.0000      -0.005609        -0.1526 
   7   2.0000      -0.003593        -0.0978 
   8   0.0000       0.184395         5.0176 
   9   0.0000       0.195324         5.3150 
  10   0.0000       0.220760         6.0072 
  11   0.0000       0.221499         6.0273 
  12   0.0000       0.266911         7.2630 
  13   0.0000       0.316362         8.6087 
  14   0.0000       0.333627         9.0785 
  15   0.0000       0.343177         9.3383 
  16   0.0000       0.351978         9.5778 
  17   0.0000       0.417352        11.3567 
  18   0.0000       0.454236        12.3604 
*Only the first 10 virtual orbitals were printed.

                    ********************************
                    * MULLIKEN POPULATION ANALYSIS *
                    ********************************

-----------------------
MULLIKEN ATOMIC CHARGES
-----------------------
   0 C :    0.059762
   1 C :    0.059762
   2 H :   -0.029881
   3 H :   -0.029881
   4 H :   -0.029881
   5 H :   -0.029881
Sum of atomic charges:   -0.0000000

--------------------------------
MULLIKEN REDUCED ORBITAL CHARGES
--------------------------------
  0 C s       :     3.054789  s :     3.054789
      pz      :     0.975292  p :     2.829907
      px      :     1.020289
      py      :     0.834326
      dz2     :    -0.000165  d :     0.055106
      dxz     :     0.007323
      dyz     :     0.000000
      dx2y2   :     0.003480
      dxy     :     0.044469
      f0      :     0.000501  f :     0.000436
      f+1     :    -0.000270
      f-1     :     0.000268
      f+2     :     0.000497
      f-2     :    -0.000000
      f+3     :    -0.001391
      f-3     :     0.000830

  1 C s       :     3.054789  s :     3.054789
      pz      :     0.975292  p :     2.829907
      px      :     1.020289
      py      :     0.834326
      dz2     :    -0.000165  d :     0.055106
      dxz     :     0.007323
      dyz     :    -0.000000
      dx2y2   :     0.003480
      dxy     :     0.044469
      f0      :     0.000501  f :     0.000436
      f+1     :    -0.000270
      f-1     :     0.000268
      f+2     :     0.000497
      f-2     :    -0.000000
      f+3     :    -0.001391
      f-3     :     0.000830

  2 H s       :     1.007638  s :     1.007638
      pz      :     0.007632  p :     0.022249
      px      :     0.007611
      py      :     0.007006
      dz2     :    -0.000247  d :    -0.000005
      dxz     :     0.000226
      dyz     :     0.000335
      dx2y2   :     0.000336
      dxy     :    -0.000656

  3 H s       :     1.007638  s :     1.007638
      pz      :     0.007632  p :     0.022249
      px      :     0.007611
      py      :     0.007006
      dz2     :    -0.000247  d :    -0.000005
      dxz     :     0.000226
      dyz     :     0.000335
      dx2y2   :     0.000336
      dxy     :    -0.000656

  4 H s       :     1.007638  s :     1.007638
      pz      :     0.007632  p :     0.022249
      px      :     0.007611
      py      :     0.007006
      dz2     :    -0.000247  d :    -0.000005
      dxz     :     0.000226
      dyz     :     0.000335
      dx2y2   :     0.000336
      dxy     :    -0.000656

  5 H s       :     1.007638  s :     1.007638
      pz      :     0.007632  p :     0.022249
      px      :     0.007611
      py      :     0.007006
      dz2     :    -0.000247  d :    -0.000005
      dxz     :     0.000226
      dyz     :     0.000335
      dx2y2   :     0.000336
      dxy     :    -0.000656



                     *******************************
                     * LOEWDIN POPULATION ANALYSIS *
                     *******************************

----------------------
LOEWDIN ATOMIC CHARGES
----------------------
   0 C :    0.061959
   1 C :    0.061959
   2 H :   -0.030979
   3 H :   -0.030979
   4 H :   -0.030979
   5 H :   -0.030979

-------------------------------
LOEWDIN REDUCED ORBITAL CHARGES
-------------------------------
  0 C s       :     2.738598  s :     2.738598
      pz      :     0.875442  p :     2.961257
      px      :     1.077305
      py      :     1.008511
      dz2     :     0.011900  d :     0.217888
      dxz     :     0.027840
      dyz     :    -0.000000
      dx2y2   :     0.045087
      dxy     :     0.133062
      f0      :     0.000353  f :     0.020298
      f+1     :     0.002566
      f-1     :     0.001048
      f+2     :     0.003172
      f-2     :     0.000000
      f+3     :     0.004972
      f-3     :     0.008187

  1 C s       :     2.738598  s :     2.738598
      pz      :     0.875442  p :     2.961257
      px      :     1.077305
      py      :     1.008511
      dz2     :     0.011900  d :     0.217888
      dxz     :     0.027840
      dyz     :     0.000000
      dx2y2   :     0.045087
      dxy     :     0.133062
      f0      :     0.000353  f :     0.020298
      f+1     :     0.002566
      f-1     :     0.001048
      f+2     :     0.003172
      f-2     :     0.000000
      f+3     :     0.004972
      f-3     :     0.008187

  2 H s       :     0.862373  s :     0.862373
      pz      :     0.040675  p :     0.145447
      px      :     0.049323
      py      :     0.055449
      dz2     :     0.002087  d :     0.023159
      dxz     :     0.001939
      dyz     :     0.003982
      dx2y2   :     0.008147
      dxy     :     0.007004

  3 H s       :     0.862373  s :     0.862373
      pz      :     0.040675  p :     0.145447
      px      :     0.049323
      py      :     0.055449
      dz2     :     0.002087  d :     0.023159
      dxz     :     0.001939
      dyz     :     0.003982
      dx2y2   :     0.008147
      dxy     :     0.007004

  4 H s       :     0.862373  s :     0.862373
      pz      :     0.040675  p :     0.145447
      px      :     0.049323
      py      :     0.055449
      dz2     :     0.002087  d :     0.023159
      dxz     :     0.001939
      dyz     :     0.003982
      dx2y2   :     0.008147
      dxy     :     0.007004

  5 H s       :     0.862373  s :     0.862373
      pz      :     0.040675  p :     0.145447
      px      :     0.049323
      py      :     0.055449
      dz2     :     0.002087  d :     0.023159
      dxz     :     0.001939
      dyz     :     0.003982
      dx2y2   :     0.008147
      dxy     :     0.007004



                      *****************************
                      * MAYER POPULATION ANALYSIS *
                      *****************************

  NA   - Mulliken gross atomic population
  ZA   - Total nuclear charge
  QA   - Mulliken gross atomic charge
  VA   - Mayer's total valence
  BVA  - Mayer's bonded valence
  FA   - Mayer's free valence

  ATOM       NA         ZA         QA         VA         BVA        FA
  0 C      5.9402     6.0000     0.0598     4.0296     4.0296    -0.0000
  1 C      5.9402     6.0000     0.0598     4.0296     4.0296    -0.0000
  2 H      1.0299     1.0000    -0.0299     0.9050     0.9050    -0.0000
  3 H      1.0299     1.0000    -0.0299     0.9050     0.9050     0.0000
  4 H      1.0299     1.0000    -0.0299     0.9050     0.9050    -0.0000
  5 H      1.0299     1.0000    -0.0299     0.9050     0.9050    -0.0000

  Mayer bond orders larger than 0.100000
B(  0-C ,  1-C ) :   2.1724 B(  0-C ,  2-H ) :   0.8995 B(  0-C ,  3-H ) :   0.8995 
B(  1-C ,  4-H ) :   0.8995 B(  1-C ,  5-H ) :   0.8995 

-------
TIMINGS
-------

Total SCF time: 0 days 0 hours 0 min 1 sec 

Total time                  ....       1.953 sec
Sum of individual times     ....       1.924 sec  ( 98.5%)

SCF preparation             ....       0.042 sec  (  2.2%)
Fock matrix formation       ....       0.644 sec  ( 33.0%)
  Startup                   ....       0.023 sec  (  3.6% of F)
  Split-RI-J                ....       0.566 sec  ( 87.9% of F)
Diagonalization             ....       0.000 sec  (  0.0%)
Density matrix formation    ....       0.485 sec  ( 24.8%)
Total Energy calculation    ....       0.321 sec  ( 16.4%)
Population analysis         ....       0.022 sec  (  1.1%)
Orbital Transformation      ....       0.025 sec  (  1.3%)
Orbital Orthonormalization  ....       0.000 sec  (  0.0%)
DIIS solution               ....       0.275 sec  ( 14.1%)
SOSCF solution              ....       0.110 sec  (  5.6%)
Finished LeanSCF after   2.0 sec

Maximum memory used throughout the entire LEANSCF-calculation: 7.9 MB

-------------------------   --------------------
FINAL SINGLE POINT ENERGY       -66.767128967454
-------------------------   --------------------

------------------------------------------------------------------------------
                         ORCA SCF GRADIENT CALCULATION
------------------------------------------------------------------------------

Nuc. rep. gradient        (SHARK) ... done (  0.0 sec)
HCore & Overlap gradient  (SHARK) ... done (  0.0 sec)
Split-RIJ-J gradient      (SHARK) ... done (  0.1 sec)

------------------
CARTESIAN GRADIENT
------------------

   1   C   :   -0.152137275    0.000000000   -0.000000000
   2   C   :    0.152137275    0.000000000   -0.000000000
   3   H   :   -0.103176752    0.158413392    0.000000000
   4   H   :   -0.103176752   -0.158413392    0.000000000
   5   H   :    0.103176752    0.158413392    0.000000000
   6   H   :    0.103176752   -0.158413392   -0.000000000

Difference to translation invariance:
           :   -0.0000000000   -0.0000000000    0.0000000000

Difference to rotation invariance:
           :   -0.0000000000   -0.0000000000    0.0000000000

Norm of the Cartesian gradient     ...    0.4350315849
RMS gradient                       ...    0.1025379279
MAX gradient                       ...    0.1584133916

-------
TIMINGS
-------

Total SCF gradient time     ....        0.162 sec

One electron gradient       ....       0.023 sec  ( 14.2%)
RI-J Coulomb gradient       ....       0.139 sec  ( 85.8%)

Maximum memory used throughout the entire SCFGRAD-calculation: 9.5 MB
------------------------------------------------------------------------------
                         ORCA GEOMETRY RELAXATION STEP
------------------------------------------------------------------------------

Reading the OPT-File                    .... done
Getting information on internals        .... done
Copying old internal coords+grads       .... done
Making the new internal coordinates     .... (2022 redundants) done
Validating the new internal coordinates .... (2022 redundants) done
Calculating the B-matrix                .... done
Calculating the G,G- and P matrices     .... done
Transforming gradient to internals      .... done
Projecting the internal gradient        .... done
Number of atoms                         ....   6
Number of internal coordinates          ....  15
Current Energy                          ....   -66.767128967 Eh
Current gradient norm                   ....     0.435031585 Eh/bohr
Maximum allowed component of the step   ....  0.300
Current trust radius                    ....  0.300
Evaluating the initial hessian          ....  (Almloef) done
Projecting the Hessian                  .... done
Forming the augmented Hessian           .... done
Diagonalizing the augmented Hessian     .... done
Last element of RFO vector              ....  0.844231166
Lowest eigenvalues of augmented Hessian:
 -0.322927822  0.043172806  0.043172806  0.043172806  0.318678080
Length of the computed step             ....  0.634872598
Warning: the length of the step is outside the trust region - taking restricted step instead
The input lambda is                     ....     0.042173
   iter:   5  x=   -1.163869  g=    0.163119 f(x)=     0.029872
   iter:  10  x=   -1.207860  g=    0.105543 f(x)=     0.000000
The output lambda is                    ....    -1.207860 (10 iterations)
The final length of the internal step   ....  0.300000000
Converting the step to Cartesian space:
 Initial RMS(Int)=    0.0774596669
Transforming coordinates:
 Iter   0:  RMS(Cart)=    0.0926307173 RMS(Int)=    0.0774588827
done
Storing new coordinates                 .... done

                                .--------------------.
          ----------------------|Geometry convergence|-------------------------
          Item                value                   Tolerance       Converged
          ---------------------------------------------------------------------
          RMS gradient        0.1345401478            0.0000100000      NO
          MAX gradient        0.3584907786            0.0001000000      NO
          RMS step            0.0774596669            0.0000100000      NO
          MAX step            0.1807511327            0.0001000000      NO
          ........................................................
          Max(Bonds)      0.0956      Max(Angles)    0.26
          Max(Dihed)        0.00      Max(Improp)    0.00
          ---------------------------------------------------------------------

The optimization has not yet converged - more geometry cycles are needed


    ---------------------------------------------------------------------------
                         Redundant Internal Coordinates
                            (Angstroem and degrees)

        Definition                    Value    dE/dq     Step     New-Value
    ----------------------------------------------------------------------------
     1. B(C   1,C   0)                1.3312 -0.358491  0.0956    1.4268   
     2. B(H   2,C   0)                1.0815 -0.188985  0.0633    1.1448   
     3. B(H   3,C   0)                1.0815 -0.188985  0.0633    1.1448   
     4. B(H   4,C   1)                1.0815 -0.188985  0.0633    1.1448   
     5. B(H   5,C   1)                1.0815 -0.188985  0.0633    1.1448   
     6. A(H   2,C   0,H   3)          116.87  0.006806   -0.26    116.62   
     7. A(C   1,C   0,H   2)          121.56 -0.003403    0.13    121.69   
     8. A(C   1,C   0,H   3)          121.56 -0.003403    0.13    121.69   
     9. A(H   4,C   1,H   5)          116.87  0.006806   -0.26    116.62   
    10. A(C   0,C   1,H   5)          121.56 -0.003403    0.13    121.69   
    11. A(C   0,C   1,H   4)          121.56 -0.003403    0.13    121.69   
    12. D(H   4,C   1,C   0,H   3)    180.00  0.000000   -0.00    180.00   
    13. D(H   5,C   1,C   0,H   2)    180.00 -0.000000   -0.00    180.00   
    14. D(H   5,C   1,C   0,H   3)      0.00 -0.000000    0.00      0.00   
    15. D(H   4,C   1,C   0,H   2)      0.00  0.000000   -0.00     -0.00   
    ----------------------------------------------------------------------------

Geometry step timings:
Preparation and reading OPT file:      0.001 s (33.333 %)
Internal coordinates            :      0.000 s ( 0.000 %)
B/P matrices and projection     :      0.000 s ( 0.000 %)
Hessian update/contruction      :      0.001 s (33.333 %)
Making the step                 :      0.000 s ( 0.000 %)
Converting the step to Cartesian:      0.000 s ( 0.000 %)
Storing new data                :      0.001 s (33.333 %)
Checking convergence            :      0.000 s ( 0.000 %)
Final printing                  :      0.000 s ( 0.000 %)
Total time                      :      0.003 s

Time for energy+gradient        :      2.605 s
Time for complete geometry iter :      2.654 s

         *************************************************************
         *                GEOMETRY OPTIMIZATION CYCLE   2            *
         *************************************************************
---------------------------------
CARTESIAN COORDINATES (ANGSTROEM)
---------------------------------
  C      0.713419    0.000000   -0.000000
  C     -0.713419   -0.000000    0.000000
  H      1.314811   -0.974107    0.000000
  H      1.314811    0.974107   -0.000000
  H     -1.314811   -0.974107   -0.000000
  H     -1.314811    0.974107    0.000000

----------------------------
CARTESIAN COORDINATES (A.U.)
----------------------------
  NO LB      ZA    FRAG     MASS         X           Y           Z
   0 C     6.0000    0    12.011    1.348166    0.000000   -0.000000
   1 C     6.0000    0    12.011   -1.348166   -0.000000    0.000000
   2 H     1.0000    0     1.008    2.484633   -1.840796    0.000000
   3 H     1.0000    0     1.008    2.484633    1.840796   -0.000000
   4 H     1.0000    0     1.008   -2.484633   -1.840796   -0.000000
   5 H     1.0000    0     1.008   -2.484633    1.840796    0.000000

--------------------------------
INTERNAL COORDINATES (ANGSTROEM)
--------------------------------
 C      0   0   0     0.000000000000     0.00000000     0.00000000
 C      1   0   0     1.426837079822     0.00000000     0.00000000
 H      1   2   0     1.144795987418   121.69028867     0.00000000
 H      1   2   3     1.144795987418   121.69028867   180.00000000
 H      2   1   3     1.144795987417   121.69028867     0.00000000
 H      2   1   3     1.144795987417   121.69028867   179.99999915

---------------------------
INTERNAL COORDINATES (A.U.)
---------------------------
 C      0   0   0     0.000000000000     0.00000000     0.00000000
 C      1   0   0     2.696331318588     0.00000000     0.00000000
 H      1   2   0     2.163350895432   121.69028867     0.00000000
 H      1   2   3     2.163350895432   121.69028867   180.00000000
 H      2   1   3     2.163350895430   121.69028867     0.00000000
 H      2   1   3     2.163350895430   121.69028867   179.99999915

------------------------------------------------------------------------------
                   ___                                                        
                  /   \      - P O W E R E D   B Y -                         
                 /     \                                                     
                 |  |  |   _    _      __       _____    __    __             
                 |  |  |  | |  | |    /  \     |  _  \  |  |  /  |          
                  \  \/   | |  | |   /    \    | | | |  |  | /  /          
                 / \  \   | |__| |  /  /\  \   | |_| |  |  |/  /          
                |  |  |   |  __  | /  /__\  \  |    /   |      \           
                |  |  |   | |  | | |   __   |  |    \   |  |\   \          
                \     /   | |  | | |  |  |  |  | |\  \  |  | \   \       
                 \___/    |_|  |_| |__|  |__|  |_| \__\ |__|  \__/        
                                                                              
                      - O R C A' S   B I G   F R I E N D -                    
                                      &                                       
                       - I N T E G R A L  F E E D E R -                       
                                                                              
 v1 FN, 2020, v2 2021, v3 2022-2024                                           
------------------------------------------------------------------------------


----------------------
SHARK INTEGRAL PACKAGE
----------------------

Number of atoms                             ...      6
Number of basis functions                   ...    118
Number of shells                            ...     46
Maximum angular momentum                    ...      3
Integral batch strategy                     ... SHARK/LIBINT Hybrid
RI-J (if used) integral strategy            ... SPLIT-RIJ (Revised 2003 algorithm where possible)
Printlevel                                  ...      1
Contraction scheme used                     ... SEGMENTED contraction
Prescreening option                         ... SCHWARTZ
   Thresh                                   ... 1.000e-12
   Tcut                                     ... 1.000e-14
   Tpresel                                  ... 1.000e-14 
Coulomb Range Separation                    ... NOT USED
Exchange Range Separation                   ... NOT USED
Multipole approximations                    ... NOT USED
Finite Nucleus Model                        ... NOT USED
CABS basis                                  ... NOT available
Auxiliary Coulomb fitting basis             ... AVAILABLE
   # of basis functions in Aux-J            ...    142
   # of shells in Aux-J                     ...     50
   Maximum angular momentum in Aux-J        ...      4
Auxiliary J/K fitting basis                 ... NOT available
Auxiliary Correlation fitting basis         ... NOT available
Auxiliary 'external' fitting basis          ... NOT available

Checking pre-screening integrals            ... done (  0.0 sec) Dimension = 46
Check shell pair data                       ... done (  0.0 sec)
Shell pair information
Shell pair cut-off parameter TPreSel        ...   1.0e-14
Total number of shell pairs                 ...      1081
Shell pairs after pre-screening             ...      1080
Total number of primitive shell pairs       ...      2684
Primitive shell pairs kept                  ...      2457
          la=0 lb=0:    252 shell pairs
          la=1 lb=0:    308 shell pairs
          la=1 lb=1:    105 shell pairs
          la=2 lb=0:    176 shell pairs
          la=2 lb=1:    112 shell pairs
          la=2 lb=2:     36 shell pairs
          la=3 lb=0:     44 shell pairs
          la=3 lb=1:     28 shell pairs
          la=3 lb=2:     16 shell pairs
          la=3 lb=3:      3 shell pairs

Calculating one electron integrals          ... done (  0.0 sec)
Calculating RI/J V-Matrix + Cholesky decomp.... done (  0.0 sec)
Calculating Nuclear repulsion               ... done (  0.0 sec) ENN=     31.358984006555 Eh

Diagonalization of the overlap matrix:
Smallest eigenvalue                        ... 3.523e-04
Time for diagonalization                   ...    0.001 sec
Threshold for overlap eigenvalues          ... 1.000e-07
Number of eigenvalues below threshold      ... 0
Time for construction of square roots      ...    0.001 sec
Total time needed                          ...    0.006 sec

-------------------
DFT GRID GENERATION
-------------------

General Integration Accuracy     IntAcc      ... 4.388
Radial Grid Type                 RadialGrid  ... OptM3 with GC (2021)
Angular Grid (max. ang.)         AngularGrid ... 4 (Lebedev-302)
Angular grid pruning method      GridPruning ... 4 (adaptive)
Weight generation scheme         WeightScheme... mBecke (2022)
Basis function cutoff            BFCut       ... 1.0000e-12
Integration weight cutoff        WCut        ... 1.0000e-14
Partially contracted basis set               ... off
Rotationally invariant grid construction     ... off
Angular grids for H and He will be reduced by one unit

Total number of grid points                  ...    25340
Total number of batches                      ...      400
Average number of points per batch           ...       63
Average number of grid points per atom       ...     4223
Initializing property integral containers    ... done (  0.0 sec)

SHARK setup successfully completed in   0.2 seconds

Maximum memory used throughout the entire STARTUP-calculation: 13.9 MB
Occupation numbers will be reassigned to an Aufbau configuration
             **** ENERGY FILE WAS UPDATED (C2H4_Opt_Geom-HFS.en.tmp) ****
Finished Guess after   0.1 sec
Maximum memory used throughout the entire GUESS-calculation: 9.5 MB
----------------------------------------D-I-I-S--------------------------------------------
Iteration    Energy (Eh)           Delta-E    RMSDP     MaxDP     DIISErr   Damp  Time(sec)
-------------------------------------------------------------------------------------------
               ***  Starting incremental Fock matrix formation  ***
    1    -66.8833252755736112     0.00e+00  1.04e-03  3.56e-02  1.27e-01  0.700   0.1
    2    -66.8871061205894080    -3.78e-03  7.96e-04  2.62e-02  8.62e-02  0.700   0.1
                               ***Turning on AO-DIIS***
    3    -66.8895288321838137    -2.42e-03  7.03e-04  1.89e-02  5.77e-02  0.700   0.1
    4    -66.8911414267978017    -1.61e-03  1.80e-03  4.40e-02  4.01e-02  0.000   0.1
    5    -66.8949441295318366    -3.80e-03  1.73e-04  5.04e-03  3.48e-03  0.000   0.1
                              *** Initializing SOSCF ***
---------------------------------------S-O-S-C-F--------------------------------------
Iteration    Energy (Eh)           Delta-E    RMSDP     MaxDP     MaxGrad    Time(sec)
--------------------------------------------------------------------------------------
    6    -66.8949635905110966    -1.95e-05  3.42e-05  4.81e-04  2.43e-03     0.1
               *** Restarting incremental Fock matrix formation ***
    7    -66.8949750814749962    -1.15e-05  1.99e-04  5.23e-03  4.90e-04     0.1
    8    -66.8949662030942989     8.88e-06  1.25e-04  3.36e-03  1.13e-03     0.1
    9    -66.8949771512948956    -1.09e-05  8.55e-06  2.16e-04  2.58e-05     0.1
   10    -66.8949771563229802    -5.03e-09  3.09e-06  7.87e-05  1.68e-05     0.1
   11    -66.8949771607180281    -4.40e-09  4.24e-07  1.07e-05  1.80e-06     0.1
   12    -66.8949771606971240     2.09e-11  1.78e-07  4.50e-06  1.06e-06     0.1
                 **** Energy Check signals convergence ****

               *****************************************************
               *                     SUCCESS                       *
               *           SCF CONVERGED AFTER  12 CYCLES          *
               *****************************************************

             **** ENERGY FILE WAS UPDATED (C2H4_Opt_Geom-HFS.en.tmp) ****

----------------
TOTAL SCF ENERGY
----------------

Total Energy       :        -66.89497716069712 Eh           -1820.30487 eV

Components:
Nuclear Repulsion  :         31.35898400655505 Eh             853.32134 eV
Electronic Energy  :        -98.25396116725217 Eh           -2673.62621 eV
One Electron Energy:       -161.75727398508087 Eh           -4401.63920 eV
Two Electron Energy:         63.50331281782870 Eh            1728.01299 eV

Virial components:
Potential Energy   :       -135.77070234968119 Eh           -3694.50864 eV
Kinetic Energy     :         68.87572518898406 Eh            1874.20377 eV
Virial Ratio       :          1.97124171073550

DFT components:
N(Alpha)           :        0.000000000000 electrons
N(Beta)            :        0.000000000000 electrons
N(Total)           :        0.000000000000 electrons
E(X)               :        0.000000000000 Eh       
E(C)               :        0.000000000000 Eh       
E(XC)              :        0.000000000000 Eh       

---------------
SCF CONVERGENCE
---------------

  Last Energy change         ...   -2.0904e-11  Tolerance :   1.0000e-09
  Last MAX-Density change    ...    4.4983e-06  Tolerance :   1.0000e-08
  Last RMS-Density change    ...    1.7815e-07  Tolerance :   1.0000e-09
  Last DIIS Error            ...    2.4275e-03  Tolerance :   1.0000e-08
  Last Orbital Gradient      ...    1.0628e-06  Tolerance :   2.0000e-06
  Last Orbital Rotation      ...    9.3718e-07  Tolerance :   2.0000e-06


Total SCF time: 0 days 0 hours 0 min 1 sec 
Finished LeanSCF after   1.1 sec

Maximum memory used throughout the entire LEANSCF-calculation: 8.1 MB

-------------------------   --------------------
FINAL SINGLE POINT ENERGY       -66.894977160697
-------------------------   --------------------

------------------------------------------------------------------------------
                         ORCA SCF GRADIENT CALCULATION
------------------------------------------------------------------------------

Nuc. rep. gradient        (SHARK) ... done (  0.0 sec)
HCore & Overlap gradient  (SHARK) ... done (  0.0 sec)
Split-RIJ-J gradient      (SHARK) ... done (  0.1 sec)

------------------
CARTESIAN GRADIENT
------------------

   1   C   :   -0.068195216   -0.000000000    0.000000000
   2   C   :    0.068195216    0.000000000   -0.000000000
   3   H   :   -0.073018488    0.113456118   -0.000000000
   4   H   :   -0.073018488   -0.113456118    0.000000000
   5   H   :    0.073018488    0.113456118    0.000000000
   6   H   :    0.073018488   -0.113456118   -0.000000000

Difference to translation invariance:
           :   -0.0000000000    0.0000000000    0.0000000000

Difference to rotation invariance:
           :    0.0000000000   -0.0000000000    0.0000000000

Norm of the Cartesian gradient     ...    0.2865608762
RMS gradient                       ...    0.0675430463
MAX gradient                       ...    0.1134561176

-------
TIMINGS
-------

Total SCF gradient time     ....        0.164 sec

One electron gradient       ....       0.023 sec  ( 14.0%)
RI-J Coulomb gradient       ....       0.141 sec  ( 86.0%)

Maximum memory used throughout the entire SCFGRAD-calculation: 9.5 MB
------------------------------------------------------------------------------
                         ORCA GEOMETRY RELAXATION STEP
------------------------------------------------------------------------------

Reading the OPT-File                    .... done
Getting information on internals        .... done
Copying old internal coords+grads       .... done
Making the new internal coordinates     .... (2022 redundants) done
Validating the new internal coordinates .... (2022 redundants) done
Calculating the B-matrix                .... done
Calculating the G,G- and P matrices     .... done
Transforming gradient to internals      .... done
Projecting the internal gradient        .... done
Number of atoms                         ....   6
Number of internal coordinates          ....  15
Current Energy                          ....   -66.894977161 Eh
Current gradient norm                   ....     0.286560876 Eh/bohr
Maximum allowed component of the step   ....  0.300
Current trust radius                    ....  0.300
Updating the Hessian (BFGS)             .... done
Forming the augmented Hessian           .... done
Diagonalizing the augmented Hessian     .... done
Last element of RFO vector              ....  0.896850746
Lowest eigenvalues of augmented Hessian:
 -0.165997394  0.043172806  0.043172806  0.043172806  0.318678080
Length of the computed step             ....  0.493207250
Warning: the length of the step is outside the trust region - taking restricted step instead
The input lambda is                     ....     0.042173
   iter:   5  x=   -0.597160  g=    0.165386 f(x)=     0.001545
The output lambda is                    ....    -0.597282 (8 iterations)
The final length of the internal step   ....  0.300000000
Converting the step to Cartesian space:
 Initial RMS(Int)=    0.0774596669
Transforming coordinates:
 Iter   0:  RMS(Cart)=    0.0894835035 RMS(Int)=    1.6241596249
done
Storing new coordinates                 .... done
The predicted energy change is          ....    -0.078063645
Previously predicted energy change      ....    -0.132024066
Actually observed energy change         ....    -0.127848193
Ratio of predicted to observed change   ....     0.968370369
New trust radius                        ....     0.450000000

                                .--------------------.
          ----------------------|Geometry convergence|-------------------------
          Item                value                   Tolerance       Converged
          ---------------------------------------------------------------------
          Energy change      -0.1278481932            0.0000010000      NO
          RMS gradient        0.0889665592            0.0000100000      NO
          MAX gradient        0.2142321920            0.0001000000      NO
          RMS step            0.0774596669            0.0000100000      NO
          MAX step            0.1522045255            0.0001000000      NO
          ........................................................
          Max(Bonds)      0.0805      Max(Angles)    0.12
          Max(Dihed)        0.00      Max(Improp)    0.00
          ---------------------------------------------------------------------

The optimization has not yet converged - more geometry cycles are needed


    ---------------------------------------------------------------------------
                         Redundant Internal Coordinates
                            (Angstroem and degrees)

        Definition                    Value    dE/dq     Step     New-Value
    ----------------------------------------------------------------------------
     1. B(C   1,C   0)                1.4268 -0.214232  0.0805    1.5074   
     2. B(H   2,C   0)                1.1448 -0.134898  0.0684    1.2132   
     3. B(H   3,C   0)                1.1448 -0.134898  0.0684    1.2132   
     4. B(H   4,C   1)                1.1448 -0.134898  0.0684    1.2132   
     5. B(H   5,C   1)                1.1448 -0.134898  0.0684    1.2132   
     6. A(H   2,C   0,H   3)          116.62  0.003649   -0.12    116.50   
     7. A(C   1,C   0,H   2)          121.69 -0.001824    0.06    121.75   
     8. A(C   1,C   0,H   3)          121.69 -0.001824    0.06    121.75   
     9. A(H   4,C   1,H   5)          116.62  0.003649   -0.12    116.50   
    10. A(C   0,C   1,H   5)          121.69 -0.001824    0.06    121.75   
    11. A(C   0,C   1,H   4)          121.69 -0.001824    0.06    121.75   
    12. D(H   4,C   1,C   0,H   3)    180.00 -0.000000   -0.00    180.00   
    13. D(H   5,C   1,C   0,H   2)    180.00  0.000000    0.00    180.00   
    14. D(H   5,C   1,C   0,H   3)      0.00  0.000000    0.00      0.00   
    15. D(H   4,C   1,C   0,H   2)     -0.00 -0.000000    0.00     -0.00   
    ----------------------------------------------------------------------------

Geometry step timings:
Preparation and reading OPT file:      0.005 s (71.429 %)
Internal coordinates            :      0.000 s ( 0.000 %)
B/P matrices and projection     :      0.000 s ( 0.000 %)
Hessian update/contruction      :      0.001 s (14.286 %)
Making the step                 :      0.001 s (14.286 %)
Converting the step to Cartesian:      0.000 s ( 0.000 %)
Storing new data                :      0.000 s ( 0.000 %)
Checking convergence            :      0.000 s ( 0.000 %)
Final printing                  :      0.000 s ( 0.000 %)
Total time                      :      0.007 s

Time for energy+gradient        :      1.610 s
Time for complete geometry iter :      1.656 s

         *************************************************************
         *                GEOMETRY OPTIMIZATION CYCLE   3            *
         *************************************************************
---------------------------------
CARTESIAN COORDINATES (ANGSTROEM)
---------------------------------
  C      0.753690    0.000000    0.000000
  C     -0.753690    0.000000    0.000000
  H      1.392121   -1.031619    0.000000
  H      1.392121    1.031619   -0.000000
  H     -1.392121   -1.031619   -0.000000
  H     -1.392121    1.031619   -0.000000

----------------------------
CARTESIAN COORDINATES (A.U.)
----------------------------
  NO LB      ZA    FRAG     MASS         X           Y           Z
   0 C     6.0000    0    12.011    1.424268    0.000000    0.000000
   1 C     6.0000    0    12.011   -1.424268    0.000000    0.000000
   2 H     1.0000    0     1.008    2.630727   -1.949478    0.000000
   3 H     1.0000    0     1.008    2.630727    1.949478   -0.000000
   4 H     1.0000    0     1.008   -2.630727   -1.949478   -0.000000
   5 H     1.0000    0     1.008   -2.630727    1.949478   -0.000000

--------------------------------
INTERNAL COORDINATES (ANGSTROEM)
--------------------------------
 C      0   0   0     0.000000000000     0.00000000     0.00000000
 C      1   0   0     1.507380245721     0.00000000     0.00000000
 H      1   2   0     1.213190963425   121.75180832     0.00000000
 H      1   2   3     1.213190963425   121.75180832   180.00000000
 H      2   1   3     1.213190963428   121.75180832     0.00000000
 H      2   1   3     1.213190963428   121.75180832   180.00000121

---------------------------
INTERNAL COORDINATES (A.U.)
---------------------------
 C      0   0   0     0.000000000000     0.00000000     0.00000000
 C      1   0   0     2.848535844095     0.00000000     0.00000000
 H      1   2   0     2.292598669022   121.75180832     0.00000000
 H      1   2   3     2.292598669022   121.75180832   180.00000000
 H      2   1   3     2.292598669027   121.75180832     0.00000000
 H      2   1   3     2.292598669027   121.75180832   180.00000121

------------------------------------------------------------------------------
                   ___                                                        
                  /   \      - P O W E R E D   B Y -                         
                 /     \                                                     
                 |  |  |   _    _      __       _____    __    __             
                 |  |  |  | |  | |    /  \     |  _  \  |  |  /  |          
                  \  \/   | |  | |   /    \    | | | |  |  | /  /          
                 / \  \   | |__| |  /  /\  \   | |_| |  |  |/  /          
                |  |  |   |  __  | /  /__\  \  |    /   |      \           
                |  |  |   | |  | | |   __   |  |    \   |  |\   \          
                \     /   | |  | | |  |  |  |  | |\  \  |  | \   \       
                 \___/    |_|  |_| |__|  |__|  |_| \__\ |__|  \__/        
                                                                              
                      - O R C A' S   B I G   F R I E N D -                    
                                      &                                       
                       - I N T E G R A L  F E E D E R -                       
                                                                              
 v1 FN, 2020, v2 2021, v3 2022-2024                                           
------------------------------------------------------------------------------


----------------------
SHARK INTEGRAL PACKAGE
----------------------

Number of atoms                             ...      6
Number of basis functions                   ...    118
Number of shells                            ...     46
Maximum angular momentum                    ...      3
Integral batch strategy                     ... SHARK/LIBINT Hybrid
RI-J (if used) integral strategy            ... SPLIT-RIJ (Revised 2003 algorithm where possible)
Printlevel                                  ...      1
Contraction scheme used                     ... SEGMENTED contraction
Prescreening option                         ... SCHWARTZ
   Thresh                                   ... 1.000e-12
   Tcut                                     ... 1.000e-14
   Tpresel                                  ... 1.000e-14 
Coulomb Range Separation                    ... NOT USED
Exchange Range Separation                   ... NOT USED
Multipole approximations                    ... NOT USED
Finite Nucleus Model                        ... NOT USED
CABS basis                                  ... NOT available
Auxiliary Coulomb fitting basis             ... AVAILABLE
   # of basis functions in Aux-J            ...    142
   # of shells in Aux-J                     ...     50
   Maximum angular momentum in Aux-J        ...      4
Auxiliary J/K fitting basis                 ... NOT available
Auxiliary Correlation fitting basis         ... NOT available
Auxiliary 'external' fitting basis          ... NOT available

Checking pre-screening integrals            ... done (  0.0 sec) Dimension = 46
Check shell pair data                       ... done (  0.0 sec)
Shell pair information
Shell pair cut-off parameter TPreSel        ...   1.0e-14
Total number of shell pairs                 ...      1081
Shell pairs after pre-screening             ...      1080
Total number of primitive shell pairs       ...      2684
Primitive shell pairs kept                  ...      2441
          la=0 lb=0:    252 shell pairs
          la=1 lb=0:    308 shell pairs
          la=1 lb=1:    105 shell pairs
          la=2 lb=0:    176 shell pairs
          la=2 lb=1:    112 shell pairs
          la=2 lb=2:     36 shell pairs
          la=3 lb=0:     44 shell pairs
          la=3 lb=1:     28 shell pairs
          la=3 lb=2:     16 shell pairs
          la=3 lb=3:      3 shell pairs

Calculating one electron integrals          ... done (  0.0 sec)
Calculating RI/J V-Matrix + Cholesky decomp.... done (  0.0 sec)
Calculating Nuclear repulsion               ... done (  0.0 sec) ENN=     29.639225345565 Eh

Diagonalization of the overlap matrix:
Smallest eigenvalue                        ... 6.135e-04
Time for diagonalization                   ...    0.002 sec
Threshold for overlap eigenvalues          ... 1.000e-07
Number of eigenvalues below threshold      ... 0
Time for construction of square roots      ...    0.001 sec
Total time needed                          ...    0.006 sec

-------------------
DFT GRID GENERATION
-------------------

General Integration Accuracy     IntAcc      ... 4.388
Radial Grid Type                 RadialGrid  ... OptM3 with GC (2021)
Angular Grid (max. ang.)         AngularGrid ... 4 (Lebedev-302)
Angular grid pruning method      GridPruning ... 4 (adaptive)
Weight generation scheme         WeightScheme... mBecke (2022)
Basis function cutoff            BFCut       ... 1.0000e-12
Integration weight cutoff        WCut        ... 1.0000e-14
Partially contracted basis set               ... off
Rotationally invariant grid construction     ... off
Angular grids for H and He will be reduced by one unit

Total number of grid points                  ...    25370
Total number of batches                      ...      400
Average number of points per batch           ...       63
Average number of grid points per atom       ...     4228
Initializing property integral containers    ... done (  0.0 sec)

SHARK setup successfully completed in   0.2 seconds

Maximum memory used throughout the entire STARTUP-calculation: 13.9 MB
Occupation numbers will be reassigned to an Aufbau configuration
             **** ENERGY FILE WAS UPDATED (C2H4_Opt_Geom-HFS.en.tmp) ****
Finished Guess after   0.1 sec
Maximum memory used throughout the entire GUESS-calculation: 9.5 MB
----------------------------------------D-I-I-S--------------------------------------------
Iteration    Energy (Eh)           Delta-E    RMSDP     MaxDP     DIISErr   Damp  Time(sec)
-------------------------------------------------------------------------------------------
               ***  Starting incremental Fock matrix formation  ***
    1    -66.9730863167120418     0.00e+00  6.88e-04  2.24e-02  7.12e-02  0.700   0.1
    2    -66.9750314051816105    -1.95e-03  5.17e-04  1.65e-02  4.82e-02  0.700   0.1
                               ***Turning on AO-DIIS***
    3    -66.9761974862086760    -1.17e-03  4.41e-04  1.23e-02  3.22e-02  0.700   0.1
    4    -66.9769634110821670    -7.66e-04  1.15e-03  2.85e-02  2.22e-02  0.000   0.1
    5    -66.9787756241034486    -1.81e-03  1.25e-04  3.45e-03  3.78e-03  0.000   0.1
[...]
                      INITIAL GUESS DONE (   0.0 sec)
                      ------------------
             **** ENERGY FILE WAS UPDATED (C2H4_Opt_Geom-HFS.en.tmp) ****
Finished Guess after   0.1 sec
Maximum memory used throughout the entire GUESS-calculation: 9.5 MB

-------------------------------------------------------------------------------------------
                                      ORCA LEAN-SCF
                              memory conserving SCF solver
-------------------------------------------------------------------------------------------

----------------------------------------D-I-I-S--------------------------------------------
Iteration    Energy (Eh)           Delta-E    RMSDP     MaxDP     DIISErr   Damp  Time(sec)
-------------------------------------------------------------------------------------------
               ***  Starting incremental Fock matrix formation  ***
                              *** Initializing SOSCF ***
---------------------------------------S-O-S-C-F--------------------------------------
Iteration    Energy (Eh)           Delta-E    RMSDP     MaxDP     MaxGrad    Time(sec)
--------------------------------------------------------------------------------------
    1    -67.0874944440716092     0.00e+00  1.78e-07  3.63e-06  9.25e-07     0.1
               *** Restarting incremental Fock matrix formation ***
    2    -67.0874944441615355    -8.99e-11  1.99e-07  5.50e-06  1.08e-06     0.1
    3    -67.0874944441015941     5.99e-11  1.65e-07  4.93e-06  2.35e-06     0.1
                 **** Energy Check signals convergence ****

               *****************************************************
               *                     SUCCESS                       *
               *           SCF CONVERGED AFTER   3 CYCLES          *
               *****************************************************

             **** ENERGY FILE WAS UPDATED (C2H4_Opt_Geom-HFS.en.tmp) ****

----------------
TOTAL SCF ENERGY
----------------

Total Energy       :        -67.08749444410159 Eh           -1825.54353 eV

Components:
Nuclear Repulsion  :         24.55795608714919 Eh             668.25596 eV
Electronic Energy  :        -91.64545053125079 Eh           -2493.79949 eV
One Electron Energy:       -148.53693542315179 Eh           -4041.89550 eV
Two Electron Energy:         56.89148489190100 Eh            1548.09601 eV

Virial components:
Potential Energy   :       -134.49833670901089 Eh           -3659.88581 eV
Kinetic Energy     :         67.41084226490929 Eh            1834.34227 eV
Virial Ratio       :          1.99520332620178

DFT components:
N(Alpha)           :        0.000000000000 electrons
N(Beta)            :        0.000000000000 electrons
N(Total)           :        0.000000000000 electrons
E(X)               :        0.000000000000 Eh       
E(C)               :        0.000000000000 Eh       
E(XC)              :        0.000000000000 Eh       

---------------
SCF CONVERGENCE
---------------

  Last Energy change         ...   -5.9941e-11  Tolerance :   1.0000e-09
  Last MAX-Density change    ...    4.9256e-06  Tolerance :   1.0000e-08
  Last RMS-Density change    ...    1.6534e-07  Tolerance :   1.0000e-09
  Last DIIS Error            ...    4.1448e-06  Tolerance :   1.0000e-08
  Last Orbital Gradient      ...    2.3513e-06  Tolerance :   2.0000e-06
  Last Orbital Rotation      ...    2.6200e-06  Tolerance :   2.0000e-06


----------------
ORBITAL ENERGIES
----------------

  NO   OCC          E(Eh)            E(eV) 
   0   2.0000      -8.396495      -228.4802 
   1   2.0000      -8.396345      -228.4762 
   2   2.0000      -0.292761        -7.9664 
   3   2.0000      -0.175970        -4.7884 
   4   2.0000      -0.073377        -1.9967 
   5   2.0000      -0.046939        -1.2773 
   6   2.0000      -0.018033        -0.4907 
   7   2.0000       0.022937         0.6242 
   8   0.0000       0.134358         3.6561 
   9   0.0000       0.143571         3.9068 
  10   0.0000       0.148053         4.0287 
  11   0.0000       0.177229         4.8226 
  12   0.0000       0.231574         6.3015 
  13   0.0000       0.292345         7.9551 
  14   0.0000       0.344175         9.3655 
  15   0.0000       0.356140         9.6911 
  16   0.0000       0.370808        10.0902 
  17   0.0000       0.381241        10.3741 
  18   0.0000       0.417773        11.3682 
*Only the first 10 virtual orbitals were printed.

                    ********************************
                    * MULLIKEN POPULATION ANALYSIS *
                    ********************************

-----------------------
MULLIKEN ATOMIC CHARGES
-----------------------
   0 C :    0.013125
   1 C :    0.013126
   2 H :   -0.006563
   3 H :   -0.006563
   4 H :   -0.006563
   5 H :   -0.006563
Sum of atomic charges:    0.0000000

--------------------------------
MULLIKEN REDUCED ORBITAL CHARGES
--------------------------------
  0 C s       :     3.382338  s :     3.382338
      pz      :     0.990111  p :     2.580701
      px      :     0.843468
      py      :     0.747123
      dz2     :     0.003027  d :     0.022168
      dxz     :     0.002413
      dyz     :     0.000000
      dx2y2   :     0.006816
      dxy     :     0.009912
      f0      :     0.000236  f :     0.001667
      f+1     :     0.000413
      f-1     :     0.000232
      f+2     :     0.000163
      f-2     :     0.000000
      f+3     :     0.000426
      f-3     :     0.000197

  1 C s       :     3.382338  s :     3.382338
      pz      :     0.990110  p :     2.580701
      px      :     0.843468
      py      :     0.747122
      dz2     :     0.003027  d :     0.022168
      dxz     :     0.002413
      dyz     :     0.000000
      dx2y2   :     0.006816
      dxy     :     0.009912
      f0      :     0.000236  f :     0.001667
      f+1     :     0.000413
      f-1     :     0.000232
      f+2     :     0.000163
      f-2     :     0.000000
      f+3     :     0.000426
      f-3     :     0.000197

  2 H s       :     0.991512  s :     0.991512
      pz      :     0.003416  p :     0.014400
      px      :     0.004838
      py      :     0.006146
      dz2     :     0.000111  d :     0.000650
      dxz     :     0.000043
      dyz     :     0.000080
      dx2y2   :     0.000167
      dxy     :     0.000249

  3 H s       :     0.991512  s :     0.991512
      pz      :     0.003416  p :     0.014400
      px      :     0.004838
      py      :     0.006146
      dz2     :     0.000111  d :     0.000650
      dxz     :     0.000043
      dyz     :     0.000080
      dx2y2   :     0.000167
      dxy     :     0.000249

  4 H s       :     0.991512  s :     0.991512
      pz      :     0.003416  p :     0.014400
      px      :     0.004838
      py      :     0.006146
      dz2     :     0.000111  d :     0.000650
      dxz     :     0.000043
      dyz     :     0.000080
      dx2y2   :     0.000167
      dxy     :     0.000249

  5 H s       :     0.991512  s :     0.991512
      pz      :     0.003416  p :     0.014400
      px      :     0.004838
      py      :     0.006146
      dz2     :     0.000111  d :     0.000650
      dxz     :     0.000043
      dyz     :     0.000080
      dx2y2   :     0.000167
      dxy     :     0.000249



                     *******************************
                     * LOEWDIN POPULATION ANALYSIS *
                     *******************************

----------------------
LOEWDIN ATOMIC CHARGES
----------------------
   0 C :   -0.088061
   1 C :   -0.088061
   2 H :    0.044030
   3 H :    0.044030
   4 H :    0.044030
   5 H :    0.044030

-------------------------------
LOEWDIN REDUCED ORBITAL CHARGES
-------------------------------
  0 C s       :     3.088829  s :     3.088829
      pz      :     0.959784  p :     2.898897
      px      :     0.980240
      py      :     0.958873
      dz2     :     0.005732  d :     0.095975
      dxz     :     0.011138
      dyz     :    -0.000000
      dx2y2   :     0.033515
      dxy     :     0.045589
      f0      :     0.000162  f :     0.004360
      f+1     :     0.001427
      f-1     :     0.000457
      f+2     :     0.000510
      f-2     :    -0.000000
      f+3     :     0.000770
      f-3     :     0.001033

  1 C s       :     3.088829  s :     3.088829
      pz      :     0.959784  p :     2.898897
      px      :     0.980240
      py      :     0.958873
      dz2     :     0.005732  d :     0.095975
      dxz     :     0.011138
      dyz     :    -0.000000
      dx2y2   :     0.033515
      dxy     :     0.045589
      f0      :     0.000162  f :     0.004360
      f+1     :     0.001427
      f-1     :     0.000457
      f+2     :     0.000510
      f-2     :    -0.000000
      f+3     :     0.000770
      f-3     :     0.001033

  2 H s       :     0.890901  s :     0.890901
      pz      :     0.013209  p :     0.059666
      px      :     0.015474
      py      :     0.030983
      dz2     :     0.000876  d :     0.005402
      dxz     :     0.000298
      dyz     :     0.000696
      dx2y2   :     0.001303
      dxy     :     0.002230

  3 H s       :     0.890901  s :     0.890901
      pz      :     0.013209  p :     0.059666
      px      :     0.015474
      py      :     0.030983
      dz2     :     0.000876  d :     0.005402
      dxz     :     0.000298
      dyz     :     0.000696
      dx2y2   :     0.001303
      dxy     :     0.002230

  4 H s       :     0.890901  s :     0.890901
      pz      :     0.013209  p :     0.059666
      px      :     0.015474
      py      :     0.030983
      dz2     :     0.000876  d :     0.005402
      dxz     :     0.000298
      dyz     :     0.000696
      dx2y2   :     0.001303
      dxy     :     0.002230

  5 H s       :     0.890901  s :     0.890901
      pz      :     0.013209  p :     0.059666
      px      :     0.015474
      py      :     0.030983
      dz2     :     0.000876  d :     0.005402
      dxz     :     0.000298
      dyz     :     0.000696
      dx2y2   :     0.001303
      dxy     :     0.002230



                      *****************************
                      * MAYER POPULATION ANALYSIS *
                      *****************************

  NA   - Mulliken gross atomic population
  ZA   - Total nuclear charge
  QA   - Mulliken gross atomic charge
  VA   - Mayer's total valence
  BVA  - Mayer's bonded valence
  FA   - Mayer's free valence

  ATOM       NA         ZA         QA         VA         BVA        FA
  0 C      5.9869     6.0000     0.0131     3.7945     3.7945     0.0000
  1 C      5.9869     6.0000     0.0131     3.7945     3.7945     0.0000
  2 H      1.0066     1.0000    -0.0066     0.9803     0.9803     0.0000
  3 H      1.0066     1.0000    -0.0066     0.9803     0.9803     0.0000
  4 H      1.0066     1.0000    -0.0066     0.9803     0.9803     0.0000
  5 H      1.0066     1.0000    -0.0066     0.9803     0.9803     0.0000

  Mayer bond orders larger than 0.100000
B(  0-C ,  1-C ) :   2.0251 B(  0-C ,  2-H ) :   0.8544 B(  0-C ,  3-H ) :   0.8544 
B(  1-C ,  4-H ) :   0.8544 B(  1-C ,  5-H ) :   0.8544 

-------
TIMINGS
-------

Total SCF time: 0 days 0 hours 0 min 0 sec 

Total time                  ....       0.353 sec
Sum of individual times     ....       0.328 sec  ( 92.9%)

SCF preparation             ....       0.051 sec  ( 14.4%)
Fock matrix formation       ....       0.094 sec  ( 26.6%)
  Startup                   ....       0.017 sec  ( 18.1% of F)
  Split-RI-J                ....       0.069 sec  ( 73.4% of F)
Diagonalization             ....       0.000 sec  (  0.0%)
Density matrix formation    ....       0.033 sec  (  9.3%)
Total Energy calculation    ....       0.022 sec  (  6.2%)
Population analysis         ....       0.052 sec  ( 14.7%)
Orbital Transformation      ....       0.010 sec  (  2.8%)
Orbital Orthonormalization  ....       0.000 sec  (  0.0%)
DIIS solution               ....       0.020 sec  (  5.7%)
SOSCF solution              ....       0.046 sec  ( 13.0%)
Finished LeanSCF after   0.4 sec

Maximum memory used throughout the entire LEANSCF-calculation: 9.8 MB

-------------------------   --------------------
FINAL SINGLE POINT ENERGY       -67.087494444102
-------------------------   --------------------

                                *** OPTIMIZATION RUN DONE ***


------------------------------------------------------------------------------
                              ORCA PROPERTY CALCULATIONS
------------------------------------------------------------------------------

GBWName                                 ... C2H4_Opt_Geom-HFS.gbw
Number of atoms                         ...      6
Number of basis functions               ...    118
Max core memory                         ...   4000 MB

Electric properties:
Dipole moment                           ... YES
Quadrupole moment                       ...  NO
Static polarizability (Dipole/Dipole)   ...  NO
Static polarizability (Dipole/Quad.)    ...  NO
Static polarizability (Quad./Quad.)     ...  NO
Static polarizability (Velocity)        ...  NO

Atomic electric properties:
Dipole moment                           ...  NO
Quadrupole moment                       ...  NO
Static polarizability                   ...  NO

Choice of electric origin               ... Center of mass
Position of electric origin             ...     0.000000     0.000000     0.000000

General magnetic properties:
Magnetizability                         ...  NO

EPR properties:
g-Tensor (aka g-matrix)                 ...  NO
Zero-Field splitting spin-orbit         ...  NO
Zero-field splitting spin-spin          ...  NO
Hyperfine couplings                     ...  NO (   0 nuclei)
Quadrupole couplings                    ...  NO (   0 nuclei)
Contact density                         ...  NO (   0 nuclei)

NMR properties:
Chemical shifts                         ...  NO (   0 nuclei)
Spin-rotation constants                 ...  NO (   0 nuclei)
Spin-spin couplings                     ...  NO (   0 nuclei,    0 pairs)

Choice of magnetic origin               ... GIAO
Position of magnetic origin             ...     0.000000     0.000000     0.000000

Properties with geometric perturbations:
SCF Hessian                             ...  NO
IR spectrum                             ...  NO
VCD spectrum                            ...  NO
X-ray spectroscopy properties:
SCF XES/XAS/RIXS spectra                ...  NO


-------------
DIPOLE MOMENT
-------------

Method             : SCF
Type of density    : Electron Density
Multiplicity       :   1
Irrep              :   0
Energy             :   -67.0874944441015941 Eh
Relativity type    : 
Basis              : AO
                                X                 Y                 Z
Electronic contribution:     -0.000000424       0.000000000       0.000000000
Nuclear contribution   :     -0.000000003      -0.000000000       0.000000000
                        -----------------------------------------
Total Dipole Moment    :     -0.000000427       0.000000000       0.000000000
                        -----------------------------------------
Magnitude (a.u.)       :      0.000000427
Magnitude (Debye)      :      0.000001086



--------------------
Rotational spectrum 
--------------------
 
Rotational constants in cm-1:             2.459613             0.564756             0.459296 
Rotational constants in MHz :         73737.355425         16930.948173         13769.347099 

Dipole components along the rotational axes: 
x,y,z [a.u.] :    -0.000000    -0.000000     0.000000 
x,y,z [Debye]:    -0.000001    -0.000000     0.000000 

 

Dipole moment calculation done in   0.0 sec 

Maximum memory used throughout the entire PROP-calculation: 7.9 MB

--------------------------------
SUGGESTED CITATIONS FOR THIS RUN
--------------------------------

Below you find a list of papers that are relevant to this ORCA run
We neither can nor want to force you to cite these papers, but we appreciate if you do
You receive ORCA, which is the product of decades of hard work by many enthusiastic individuals, for free
The only thing we kindly ask in return is that you cite our papers,
We deeply appreciate it, if you show your appreciation for ORCA by not just citing the generic ORCA reference.

Please note that relegating all ORCA citations to the supporting information does *not* help us.
SI sections are not indexed - citations you put there will not count into any citation statistics
But we need these citations in order to attract the funding resources that allow us to do what we are doing

Therefore, if you are a happy ORCA user, please consider citing a few of the papers listed below in the main body of your paper

In addition to the list printed below, the program has created the file C2H4_Opt_Geom-HFS.bibtex that contains the list in bibtex format
You can import this file easily into all common literature databanks and citation aid programs


List of essential papers. We consider these as the minimum necessary citations

  1. Neese,F.
     Software update: the ORCA program system, version 5.0
     WIRES Comput. Molec. Sci., 2022 12(1)e1606
     doi.org/10.1002/wcms.1606

List of papers to cite with high priority. The work reported in these papers was absolutely
necessary for this run to complete.
Our perspective: the developers of density functionals and basis sets usually get cited in chemistry papers
Good! But without the algorithms to do something with them, the functionals or basis sets would not do anything.
Hence, in our opinion, the algorithm design and method developments papers are equally worthy of getting cited

  1. Neese,F.
     An improvement of the resolution of the identity approximation for the formation of the Coulomb matrix
     J. Comp. Chem., 2003 24(14)1740-1747
     doi.org/10.1002/jcc.10318
  2. Neese,F.
     The SHARK Integral Generation and Digestion System
     J. Comp. Chem., 2022  1-16
     doi.org/10.1002/jcc.26942

List of suggested additional citations. These are papers that are important in the 'surrounding' of 
of this run, or papers that preceded the highly important papers. If you like your results we are grateful for a citation.

  1. Neese,F.
     The ORCA program system
     WIRES Comput. Molec. Sci., 2012 2(1)73-78
     doi.org/10.1002/wcms.81
  2. Neese,F.
     Software update: the ORCA program system, version 4.0
     WIRES Comput. Molec. Sci., 2018 8(1)1-6
     doi.org/10.1002/wcms.1327
  3. Neese,F.; Wennmohs,F.; Becker,U.; Riplinger,C.
     The ORCA quantum chemistry program package
     J. Chem. Phys., 2020 152 Art. No. L224108
     doi.org/10.1063/5.0004608

List of optional additional citations

  1. Neese,F.
     Approximate second-order SCF convergence for spin unrestricted wavefunctions
     Chem. Phys. Lett., 2000 325(1-3)93-98
     doi.org/10.1016/s0009-2614(00)00662-x

Timings for individual modules:

Sum of individual times          ...       23.665 sec (=   0.394 min)
Startup calculation              ...        3.674 sec (=   0.061 min)  15.5 %
SCF iterations                   ...       16.228 sec (=   0.270 min)  68.6 %
Property calculations            ...        0.060 sec (=   0.001 min)   0.3 %
SCF Gradient evaluation          ...        3.580 sec (=   0.060 min)  15.1 %
Geometry relaxation              ...        0.123 sec (=   0.002 min)   0.5 %
                             ****ORCA TERMINATED NORMALLY****
TOTAL RUN TIME: 0 days 0 hours 0 minutes 24 seconds 533 msec
