
                                 *****************
                                 * O   R   C   A *
                                 *****************

                                            #,                                       
                                            ###                                      
                                            ####                                     
                                            #####                                    
                                            ######                                   
                                           ########,                                 
                                     ,,################,,,,,                         
                               ,,#################################,,                 
                          ,,##########################################,,             
                       ,#########################################, ''#####,          
                    ,#############################################,,   '####,        
                  ,##################################################,,,,####,       
                ,###########''''           ''''###############################       
              ,#####''   ,,,,##########,,,,          '''####'''          '####       
            ,##' ,,,,###########################,,,                        '##       
           ' ,,###''''                  '''############,,,                           
         ,,##''                                '''############,,,,        ,,,,,,###''
      ,#''                                            '''#######################'''  
     '                                                          ''''####''''         
             ,#######,   #######,   ,#######,      ##                                
            ,#'     '#,  ##    ##  ,#'     '#,    #''#        ,####,   ,####,        
            ##       ##  ##   ,#'  ##            #'  '#       #'       #'  '#        
            ##       ##  #######   ##           ,######,      #####,   #    #        
            '#,     ,#'  ##    ##  '#,     ,#' ,#      #,     #,   #   #,  ,#        
             '#######'   ##     ##  '#######'  #'      '#     '####' # '####'        



                #########################################################
                #                        -***-                          #
                #          Department of theory and spectroscopy        #
                #                                                       #
                #                      Frank Neese                      #
                #                                                       #
                #     Directorship, Architecture, Infrastructure        #
                #                    SHARK, DRIVERS                     #
                #        Core code/Algorithms in most modules           #
                #                                                       #
                #        Max Planck Institute fuer Kohlenforschung      #
                #                Kaiser Wilhelm Platz 1                 #
                #                 D-45470 Muelheim/Ruhr                 #
                #                      Germany                          #
                #                                                       #
                #                  All rights reserved                  #
                #                        -***-                          #
                #########################################################


                         Program Version 6.0.1  -  RELEASE   -


 With contributions from (in alphabetic order):
[Max-Planck-Institut fuer Kohlenforschung]                               
  Daniel Aravena         : Magnetic Suceptibility                        
  Michael Atanasov       : Ab Initio Ligand Field Theory (pilot matlab implementation)
  Alexander A. Auer      : GIAO ZORA, VPT2 properties, NMR spectrum      
  Ute Becker             : All parallelization in ORCA, NUMFREQ, NUMCALC 
  Giovanni Bistoni       : ED, misc. LED, open-shell LED, HFLD           
  Martin Brehm           : Molecular dynamics                            
  Dmytro Bykov           : pre 5.0 version of the SCF Hessian            
  Marcos Casanova-Páez   : Triplet and SCS-CIS(D). UHF-(DLPNO)-IP/EA/STEOM-CCSD. UHF-CVS-IP/STEOM-CCSD   
  Vijay G. Chilkuri      : MRCI spin determinant printing, contributions to CSF-ICE 
  Pauline Colinet        : FMM embedding                                 
  Dipayan Datta          : RHF DLPNO-CCSD density                        
  Achintya Kumar Dutta   : EOM-CC, STEOM-CC                              
  Nicolas Foglia         : Exact transition moments, OPA infrastructure, MCD improvements    
  Dmitry Ganyushin       : Spin-Orbit,Spin-Spin,Magnetic field MRCI      
  Miquel Garcia-Rates    : C-PCM and meta-GGA Hessian, CCSD/C-PCM, Gaussian charge scheme 
  Tiago L. C. Gouveia    : GS-ROHF, GS-ROCIS                             
  Yang Guo               : DLPNO-NEVPT2, F12-NEVPT2, CIM, IAO-localization        
  Andreas Hansen         : Spin unrestricted coupled pair/coupled cluster methods 
  Ingolf Harden          : AUTO-CI MPn and infrastructure                
  Benjamin Helmich-Paris : MC-RPA, TRAH-(SCF,CASSCF), AVAS, COSX integrals, SCF dyn. polar. 
  Lee Huntington         : MR-EOM, pCC                                   
  Robert Izsak           : Overlap fitted RIJCOSX, COSX-SCS-MP3, EOM     
  Riya Kayal             : Wick's Theorem for AUTO-CI, AUTO-CI UHF-CCSDT 
  Emily Kempfer          : AUTO-CI, RHF CISDT and CCSDT                  
  Christian Kollmar      : KDIIS, OOCD, Brueckner-CCSD(T), CCSD density, CASPT2, CASPT2-K, improved NEVPT2 
  Axel Koslowski         : Symmetry handling                             
  Simone Kossmann        : meta-GGA functionals, TD-DFT gradient, OOMP2, (MP2 Hessian; deprecated post 5.0) 
  Lucas Lang             : DCDCAS                                        
  Marvin Lechner         : AUTO-CI (C++ implementation), FIC-MRCC        
  Spencer Leger          : CASSCF response                               
  Dagmar Lenk            : GEPOL surface, SMD, ORCA-2-JSON               
  Dimitrios Liakos       : Extrapolation schemes; Compound Job, initial MDCI parallelization 
  Dimitrios Manganas     : Further ROCIS development; embedding schemes. LFT, Crystal Embedding 
  Dimitrios Pantazis     : SARC Basis sets                               
  Anastasios Papadopoulos: AUTO-CI, single reference methods and gradients 
  Taras Petrenko         : pre 6.0 DFT Hessian and TD-DFT gradient, (ASA, deprecated), ECA, 1-Electron XAS/XES, NRVS 
  Peter Pinski           : DLPNO-MP2, DLPNO-MP2 Gradient                 
  Christoph Reimann      : Effective Core Potentials                     
  Marius Retegan         : Local ZFS, SOC                                
  Christoph Riplinger    : Optimizer, TS searches, QM/MM, DLPNO-CCSD(T), (RO)-DLPNO pert. Triples 
  Michael Roemelt        : Original ROCIS implementation                 
  Masaaki Saitow         : Open-shell DLPNO-CCSD energy and density      
  Barbara Sandhoefer     : DKH picture change effects                    
  Kantharuban Sivalingam : CASSCF convergence/infrastructure, NEVPT2 and variants, FIC-MRCI 
  Bernardo de Souza      : ESD, SOC TD-DFT                               
  Georgi L. Stoychev     : AutoAux, RI-MP2 NMR, DLPNO-MP2 response, X2C  
  Van Anh Tran           : RI-MP2 g-tensors                              
  Willem Van den Heuvel  : Paramagnetic NMR                              
  Zikuan Wang            : NOTCH, Electric field optimization            
  Frank Wennmohs         : Technical directorship and infrastructure     
  Hang Xu                : AUTO-CI-Response properties                   
                                                                         
[FACCTs GmbH]                                                            
  Markus Bursch, Miquel Garcia-Rates, Christoph Riplinger, Bernardo de Souza, Georgi L. Stoychev 
                                                                 
  APM, Basis sets (HGBS, AHGBS, def-TZVP (Ac-Lr), def2-XVPD (La-Lu)), CI-OPT, improved COSX, DLPNO-Multilevel,           
  DOCKER, DRACO, updates on ESD, GOAT, IRC, LR-CPCM, MBIS, meta-GGA TD-DFT gradient, ML-optimized integration grids, 
  MM, NACMEs, nearIR, NEB, NEB-TS, NL-DFT gradient (VV10), 2- and 3-layer-ONIOM, interface openCOSMO-RS, QMMM,   
  Crystal-QMMM, SF, symmetry and pop. for TD-DFT, r2SCAN hybrids, SOLVATOR                                   
                                                                         
[Other institutions]                                                     
  V. Asgeirsson          : NEB                                           
  Christoph Bannwarth    : sTDA-DFT, sTD-DFT, PBEh-3c, B97-3c, D3        
  Sebastian Ehlert       : rSCAN, r2SCAN, r2SCAN-3c, D4, dhf basis sets  
  Marvin Friede          : D4 for Fr, Ra, Ac-Lr                          
  Lars Goerigk           : TD-DFT with DH, B97 family of functionals     
  Stefan Grimme          : VdW corrections, initial TS optimization, DFT functionals, gCP, sTDA/sTD-DF 
  Waldemar Hujo          : DFT-NL                                        
  H. Jonsson             : NEB                                           
  Holger Kruse           : gCP                                           
  Marcel Mueller         : wB97X-3c, vDZP basis set                      
  Hagen Neugebauer       : wr2SCAN                                       
  Tobias Risthaus        : range-separated hybrid DFT                    
  Lukas Wittmann         : regularized MP2, r2SCAN double-hybrids, wr2SCAN        
                                                                         
We gratefully acknowledge several colleagues who have allowed us to      
interface, adapt or use parts of their codes:                            
  Ed Valeev, F. Pavosevic, A. Kumar             : LibInt (2-el integral package), F12 methods 
  Garnet Chan, S. Sharma, J. Yang, R. Olivares  : DMRG                   
  Ulf Ekstrom                                   : XCFun DFT Library      
  Mihaly Kallay                                 : mrcc  (arbitrary order and MRCC methods)
  Frank Weinhold                                : gennbo (NPA and NBO analysis)           
  Simon Mueller                                 : openCOSMO-RS                            
  Christopher J. Cramer and Donald G. Truhlar   : smd solvation model                     
  S Lehtola, MJT Oliveira, MAL Marques          : LibXC Library                           
  Liviu Ungur et al                             : ANISO software                          


 Your calculation uses the libint2 library for the computation of 2-el integrals
 For citations please refer to: http://libint.valeyev.net

 Your ORCA version has been built with support for libXC version: 6.2.2
 For citations please refer to: https://libxc.gitlab.io

 This ORCA versions uses:
   CBLAS   interface :  Fast vector & matrix operations
   LAPACKE interface :  Fast linear algebra routines
   Shared memory     :  Shared parallel matrices


NOTE: MaxCore=4000 MB was set to SCF,MP2,MDCI,CIPSI,MRCI and CIS
      => If you want to overwrite this, your respective input block should be placed after the MaxCore statement
Warning: RI is on but no J-basis has been assigned. Assigning Def2/J (nothing to worry about!)
================================================================================

----- Orbital basis set information -----
Your calculation utilizes the basis: def2-TZVPP
   F. Weigend and R. Ahlrichs, Phys. Chem. Chem. Phys. 7, 3297 (2005).

----- AuxJ basis set information -----
Your calculation utilizes the auxiliary basis: def2/J
   F. Weigend, Phys. Chem. Chem. Phys. 8, 1057 (2006).

================================================================================
                                        WARNINGS
                       Please study these warnings very carefully!
================================================================================


WARNING: Analytical and numerical frequencies both set to true
  ===> : Disabling Anfreq

WARNING: Geometry Optimization
  ===> : Switching off AutoStart
         For restart on a previous wavefunction, please use MOREAD

================================================================================
                                       INPUT FILE
================================================================================
NAME = C2H4_Freq-LDA.inp
|  1> ! LDA def2-TZVPP Opt TightOpt VeryTightSCF
|  2> 
|  3> ! Freq
|  4> ! NumFreq
|  5> 
|  6> %scf
|  7>    MaxIter 400          # Máximo de iteraciones permitidas para el SCF
|  8> end
|  9> 
| 10> %geom
| 11>    TolRMSD 1.0e-5
| 12>    TolMAXD 1.0e-4
| 13>    TolRMSG 1.0e-5
| 14>    TolMAXG 1.0e-4
| 15> end
| 16> 
| 17> %pal
| 18>    nprocs 1
| 19> end
| 20> 
| 21> 
| 22> %MaxCore 4000            # Memoria máxima por núcleo (en MB)
| 23> 
| 24> * xyz 0 1
| 25> C       0.66559385    0.00000000    0.00000000
| 26> C      -0.66559385    0.00000000    0.00000000
| 27> H       1.23167063   -0.92149339    0.00000000
| 28> H       1.23167063    0.92149339    0.00000000
| 29> H      -1.23167063   -0.92149339    0.00000000
| 30> H      -1.23167063    0.92149339    0.00000000
| 31> **                         ****END OF INPUT****
================================================================================

                       *****************************
                       * Geometry Optimization Run *
                       *****************************

Geometry optimization settings:
Update method            Update   .... BFGS
Choice of coordinates    CoordSys .... (2022) Redundant Internals
Initial Hessian          InHess   .... Almloef's Model
Max. no of cycles        MaxIter  .... 50

Convergence Tolerances:
Energy Change            TolE     ....  1.0000e-06 Eh
Max. Gradient            TolMAXG  ....  1.0000e-04 Eh/bohr
RMS Gradient             TolRMSG  ....  1.0000e-05 Eh/bohr
Max. Displacement        TolMAXD  ....  1.0000e-04 bohr
RMS Displacement         TolRMSD  ....  1.0000e-05 bohr
Strict Convergence                .... False

------------------------------------------------------------------------------
                        ORCA OPTIMIZATION COORDINATE SETUP
------------------------------------------------------------------------------

The optimization will be done in redundant internal coordinates (2022)
Making redundant internal coordinates   ...  (2022 redundants) done
Evaluating the initial hessian          ...  (Almloef) done
Evaluating the coordinates              ...  done
Calculating the B-matrix                .... done
Calculating the G-matrix                .... done
Diagonalizing the G-matrix              .... done
The first mode is                       ....    3
The number of degrees of freedom        ....   12

    -----------------------------------------------------------------
                    Redundant Internal Coordinates


    -----------------------------------------------------------------
         Definition                    Initial Value    Approx d2E/dq
    -----------------------------------------------------------------
      1. B(C   1,C   0)                  1.3312         0.775479   
      2. B(H   2,C   0)                  1.0815         0.371553   
      3. B(H   3,C   0)                  1.0815         0.371553   
      4. B(H   4,C   1)                  1.0815         0.371553   
      5. B(H   5,C   1)                  1.0815         0.371553   
      6. A(H   2,C   0,H   3)          116.8749         0.293720   
      7. A(C   1,C   0,H   2)          121.5626         0.368593   
      8. A(C   1,C   0,H   3)          121.5626         0.368593   
      9. A(H   4,C   1,H   5)          116.8749         0.293720   
     10. A(C   0,C   1,H   5)          121.5626         0.368593   
     11. A(C   0,C   1,H   4)          121.5626         0.368593   
     12. D(H   4,C   1,C   0,H   3)    180.0000         0.043173   
     13. D(H   5,C   1,C   0,H   2)    180.0000         0.043173   
     14. D(H   5,C   1,C   0,H   3)      0.0000         0.043173   
     15. D(H   4,C   1,C   0,H   2)      0.0000         0.043173   
    -----------------------------------------------------------------

Number of atoms                         .... 6
Number of degrees of freedom            .... 15


         *************************************************************
         *                GEOMETRY OPTIMIZATION CYCLE   1            *
         *************************************************************
---------------------------------
CARTESIAN COORDINATES (ANGSTROEM)
---------------------------------
  C      0.665594    0.000000    0.000000
  C     -0.665594    0.000000    0.000000
  H      1.231671   -0.921493    0.000000
  H      1.231671    0.921493    0.000000
  H     -1.231671   -0.921493    0.000000
  H     -1.231671    0.921493    0.000000

----------------------------
CARTESIAN COORDINATES (A.U.)
----------------------------
  NO LB      ZA    FRAG     MASS         X           Y           Z
   0 C     6.0000    0    12.011    1.257790    0.000000    0.000000
   1 C     6.0000    0    12.011   -1.257790    0.000000    0.000000
   2 H     1.0000    0     1.008    2.327520   -1.741370    0.000000
   3 H     1.0000    0     1.008    2.327520    1.741370    0.000000
   4 H     1.0000    0     1.008   -2.327520   -1.741370    0.000000
   5 H     1.0000    0     1.008   -2.327520    1.741370    0.000000

--------------------------------
INTERNAL COORDINATES (ANGSTROEM)
--------------------------------
 C      0   0   0     0.000000000000     0.00000000     0.00000000
 C      1   0   0     1.331187700000     0.00000000     0.00000000
 H      1   2   0     1.081477225220   121.56255916     0.00000000
 H      1   2   3     1.081477225220   121.56255916   180.00000121
 H      2   1   3     1.081477225220   121.56255916     0.00000000
 H      2   1   3     1.081477225220   121.56255916   180.00000121

---------------------------
INTERNAL COORDINATES (A.U.)
---------------------------
 C      0   0   0     0.000000000000     0.00000000     0.00000000
 C      1   0   0     2.515580185845     0.00000000     0.00000000
 H      1   2   0     2.043695775738   121.56255916     0.00000000
 H      1   2   3     2.043695775738   121.56255916   180.00000121
 H      2   1   3     2.043695775738   121.56255916     0.00000000
 H      2   1   3     2.043695775738   121.56255916   180.00000121

---------------------
BASIS SET INFORMATION
---------------------
There are 2 groups of distinct atoms

 Group   1 Type C   : 11s6p2d1f contracted to 5s3p2d1f pattern {62111/411/11/1}
 Group   2 Type H   : 5s2p1d contracted to 3s2p1d pattern {311/11/1}

Atom   0C    basis set group =>   1
Atom   1C    basis set group =>   1
Atom   2H    basis set group =>   2
Atom   3H    basis set group =>   2
Atom   4H    basis set group =>   2
Atom   5H    basis set group =>   2
---------------------------------
AUXILIARY/J BASIS SET INFORMATION
---------------------------------
There are 2 groups of distinct atoms

 Group   1 Type C   : 12s5p4d2f1g contracted to 6s4p3d1f1g pattern {711111/2111/211/2/1}
 Group   2 Type H   : 5s2p1d contracted to 3s1p1d pattern {311/2/1}

Atom   0C    basis set group =>   1
Atom   1C    basis set group =>   1
Atom   2H    basis set group =>   2
Atom   3H    basis set group =>   2
Atom   4H    basis set group =>   2
Atom   5H    basis set group =>   2
------------------------------------------------------------------------------
                             ORCA STARTUP CALCULATIONS
                           -- RI-GTO INTEGRALS CHOSEN --
------------------------------------------------------------------------------
------------------------------------------------------------------------------
                   ___                                                        
                  /   \      - P O W E R E D   B Y -                         
                 /     \                                                     
                 |  |  |   _    _      __       _____    __    __             
                 |  |  |  | |  | |    /  \     |  _  \  |  |  /  |          
                  \  \/   | |  | |   /    \    | | | |  |  | /  /          
                 / \  \   | |__| |  /  /\  \   | |_| |  |  |/  /          
                |  |  |   |  __  | /  /__\  \  |    /   |      \           
                |  |  |   | |  | | |   __   |  |    \   |  |\   \          
                \     /   | |  | | |  |  |  |  | |\  \  |  | \   \       
                 \___/    |_|  |_| |__|  |__|  |_| \__\ |__|  \__/        
                                                                              
                      - O R C A' S   B I G   F R I E N D -                    
                                      &                                       
                       - I N T E G R A L  F E E D E R -                       
                                                                              
 v1 FN, 2020, v2 2021, v3 2022-2024                                           
------------------------------------------------------------------------------


----------------------
SHARK INTEGRAL PACKAGE
----------------------

Number of atoms                             ...      6
Number of basis functions                   ...    118
Number of shells                            ...     46
Maximum angular momentum                    ...      3
Integral batch strategy                     ... SHARK/LIBINT Hybrid
RI-J (if used) integral strategy            ... SPLIT-RIJ (Revised 2003 algorithm where possible)
Printlevel                                  ...      1
Contraction scheme used                     ... SEGMENTED contraction
Prescreening option                         ... SCHWARTZ
   Thresh                                   ... 1.000e-12
   Tcut                                     ... 1.000e-14
   Tpresel                                  ... 1.000e-14 
Coulomb Range Separation                    ... NOT USED
Exchange Range Separation                   ... NOT USED
Multipole approximations                    ... NOT USED
Finite Nucleus Model                        ... NOT USED
CABS basis                                  ... NOT available
Auxiliary Coulomb fitting basis             ... AVAILABLE
   # of basis functions in Aux-J            ...    142
   # of shells in Aux-J                     ...     50
   Maximum angular momentum in Aux-J        ...      4
Auxiliary J/K fitting basis                 ... NOT available
Auxiliary Correlation fitting basis         ... NOT available
Auxiliary 'external' fitting basis          ... NOT available

Checking pre-screening integrals            ... done (  0.0 sec) Dimension = 46
Check shell pair data                       ... done (  0.0 sec)
Shell pair information
Shell pair cut-off parameter TPreSel        ...   1.0e-14
Total number of shell pairs                 ...      1081
Shell pairs after pre-screening             ...      1080
Total number of primitive shell pairs       ...      2684
Primitive shell pairs kept                  ...      2469
          la=0 lb=0:    252 shell pairs
          la=1 lb=0:    308 shell pairs
          la=1 lb=1:    105 shell pairs
          la=2 lb=0:    176 shell pairs
          la=2 lb=1:    112 shell pairs
          la=2 lb=2:     36 shell pairs
          la=3 lb=0:     44 shell pairs
          la=3 lb=1:     28 shell pairs
          la=3 lb=2:     16 shell pairs
          la=3 lb=3:      3 shell pairs

Calculating one electron integrals          ... done (  0.0 sec)
Calculating RI/J V-Matrix + Cholesky decomp.... done (  0.0 sec)
Calculating Nuclear repulsion               ... done (  0.0 sec) ENN=     33.423497764107 Eh

Diagonalization of the overlap matrix:
Smallest eigenvalue                        ... 1.876e-04
Time for diagonalization                   ...    0.001 sec
Threshold for overlap eigenvalues          ... 1.000e-07
Number of eigenvalues below threshold      ... 0
Time for construction of square roots      ...    0.002 sec
Total time needed                          ...    0.007 sec

-------------------
DFT GRID GENERATION
-------------------

General Integration Accuracy     IntAcc      ... 4.388
Radial Grid Type                 RadialGrid  ... OptM3 with GC (2021)
Angular Grid (max. ang.)         AngularGrid ... 4 (Lebedev-302)
Angular grid pruning method      GridPruning ... 4 (adaptive)
Weight generation scheme         WeightScheme... mBecke (2022)
Basis function cutoff            BFCut       ... 1.0000e-12
Integration weight cutoff        WCut        ... 1.0000e-14
Partially contracted basis set               ... off
Rotationally invariant grid construction     ... off
Angular grids for H and He will be reduced by one unit

Total number of grid points                  ...    25284
Total number of batches                      ...      399
Average number of points per batch           ...       63
Average number of grid points per atom       ...     4214
Initializing property integral containers    ... done (  0.0 sec)

SHARK setup successfully completed in   0.2 seconds

Maximum memory used throughout the entire STARTUP-calculation: 13.8 MB
-------------------------------------------------------------------------------
                                 ORCA GUESS
                   Start orbitals & Density for SCF / CASSCF
-------------------------------------------------------------------------------

------------
SCF SETTINGS
------------
Hamiltonian:
 Density Functional     Method          .... DFT(GTOs)
 Exchange Functional    Exchange        .... Slater
   X-Alpha parameter    XAlpha          ....  0.666667
 Correlation Functional Correlation     .... VWN-5
 Gradients option       PostSCFGGA      .... off
 RI-approximation to the Coulomb term is turned on
   Number of AuxJ basis functions       .... 142


General Settings:
 Integral files         IntName         .... C2H4_Freq-LDA
 Hartree-Fock type      HFTyp           .... RHF
 Total Charge           Charge          ....    0
 Multiplicity           Mult            ....    1
 Number of Electrons    NEL             ....   16
 Basis Dimension        Dim             ....  118
 Nuclear Repulsion      ENuc            ....     33.4234977641 Eh

Convergence Acceleration:
 AO-DIIS                CNVDIIS         .... on
   Start iteration      DIISMaxIt       ....    12
   Startup error        DIISStart       ....  0.200000
   # of expansion vecs  DIISMaxEq       ....     5
   Bias factor          DIISBfac        ....   1.050
   Max. coefficient     DIISMaxC        ....  10.000
 MO-DIIS                CNVKDIIS        .... off
 Trust-Rad. Augm. Hess. CNVTRAH         .... auto
   Auto Start mean grad. ratio tolernc. ....  1.125000
   Auto Start start iteration           ....    50
   Auto Start num. interpolation iter.  ....    10
   Max. Number of Micro iterations      ....    24
   Max. Number of Macro iterations      .... Maxiter - #DIIS iter
   Number of Davidson start vectors     ....     2
   Converg. threshold    (grad. norm)   ....   2.000e-06
   Grad. Scal. Fac. for Micro threshold ....   0.100
   Minimum threshold for Micro iter.    ....   1.000e-02
   NR start threshold (gradient norm)   ....   1.000e-04
   Initial trust radius                 ....   0.400
   Minimum AH scaling param. (alpha)    ....   1.000
   Maximum AH scaling param. (alpha)    .... 1000.000
   Quad. conv. algorithm                .... NR
   White noise on init. David. guess    .... on
   Maximum white noise                  ....   0.010
   Pseudo random numbers                .... off
   Inactive MOs                         .... canonical
   Orbital update algorithm             .... Taylor
   Preconditioner                       .... Diag
   Full preconditioner red. dimension   ....   250
 SOSCF                  CNVSOSCF        .... on
   Start iteration      SOSCFMaxIt      ....   150
   Startup grad/error   SOSCFStart      ....  0.003300
   Hessian update       SOSCFHessUp     .... L-BFGS
 Level Shifting         CNVShift        .... on
   Level shift para.    LevelShift      ....    0.2500
   Turn off err/grad.   ShiftErr        ....    0.0010
 Zerner damping         CNVZerner       .... off
 Static damping         CNVDamp         .... on
   Fraction old density DampFac         ....    0.7000
   Max. Damping (<1)    DampMax         ....    0.9800
   Min. Damping (>=0)   DampMin         ....    0.0000
   Turn off err/grad.   DampErr         ....    0.1000

SCF Procedure:
 Maximum # iterations   MaxIter         ....   400
 SCF integral mode      SCFMode         .... Direct
   Integral package                     .... SHARK and LIBINT hybrid scheme
 Reset frequency        DirectResetFreq ....    20
 Integral Threshold     Thresh          ....  1.000e-12 Eh
 Primitive CutOff       TCut            ....  1.000e-14 Eh

Convergence Tolerance:
 Convergence Check Mode ConvCheckMode   .... Total+1el-Energy
 Convergence forced     ConvForced      .... 0
 Energy Change          TolE            ....  1.000e-09 Eh
 1-El. energy change                    ....  1.000e-06 Eh
 Orbital Gradient       TolG            ....  2.000e-06
 Orbital Rotation angle TolX            ....  2.000e-06
 DIIS Error             TolErr          ....  1.000e-08

------------------------------
INITIAL GUESS: MODEL POTENTIAL
------------------------------
Loading Hartree-Fock densities                     ... done
Calculating cut-offs                               ... done
Initializing the effective Hamiltonian             ... done
Setting up the integral package (SHARK)            ... done
Starting the Coulomb interaction                   ... done (   0.0 sec)
Making the grid                                    ... done (   0.0 sec)
Mapping shells                                     ... done
Starting the XC term evaluation                    ... done (   0.0 sec)
  promolecular density results
     # of electrons  =     15.999376458
     EX              =    -10.247389051
     EC              =     -0.967818329
     EX+EC           =    -11.215207380
Transforming the Hamiltonian                       ... done (   0.0 sec)
Diagonalizing the Hamiltonian                      ... done (   0.0 sec)
Back transforming the eigenvectors                 ... done (   0.0 sec)
Now organizing SCF variables                       ... done
                      ------------------
                      INITIAL GUESS DONE (   0.1 sec)
                      ------------------
             **** ENERGY FILE WAS UPDATED (C2H4_Freq-LDA.en.tmp) ****
Finished Guess after   0.1 sec
Maximum memory used throughout the entire GUESS-calculation: 9.4 MB

-------------------------------------------------------------------------------------------
                                      ORCA LEAN-SCF
                              memory conserving SCF solver
-------------------------------------------------------------------------------------------

----------------------------------------D-I-I-S--------------------------------------------
Iteration    Energy (Eh)           Delta-E    RMSDP     MaxDP     DIISErr   Damp  Time(sec)
-------------------------------------------------------------------------------------------
               ***  Starting incremental Fock matrix formation  ***
    1    -77.7660269230192682     0.00e+00  1.55e-03  3.49e-02  1.82e-01  0.700   0.2
    2    -77.8106154314399134    -4.46e-02  1.10e-03  2.22e-02  8.83e-02  0.700   0.2
                               ***Turning on AO-DIIS***
    3    -77.8263648960046339    -1.57e-02  4.30e-04  5.94e-03  2.56e-02  0.700   0.2
    4    -77.8353517272106501    -8.99e-03  6.53e-04  9.21e-03  9.66e-03  0.000   0.2
    5    -77.8557594496356558    -2.04e-02  2.09e-04  2.89e-03  8.29e-03  0.000   0.3
                              *** Initializing SOSCF ***
---------------------------------------S-O-S-C-F--------------------------------------
Iteration    Energy (Eh)           Delta-E    RMSDP     MaxDP     MaxGrad    Time(sec)
--------------------------------------------------------------------------------------
    6    -77.8559737321199918    -2.14e-04  9.41e-05  1.36e-03  1.69e-03     0.3
               *** Restarting incremental Fock matrix formation ***
    7    -77.8559859887844254    -1.23e-05  6.03e-05  8.56e-04  3.37e-04     0.2
    8    -77.8559861961259969    -2.07e-07  9.66e-06  2.00e-04  2.42e-04     0.1
    9    -77.8559868051480350    -6.09e-07  7.92e-06  1.18e-04  4.29e-05     0.2
   10    -77.8559868258804784    -2.07e-08  1.53e-06  2.20e-05  1.20e-05     0.1
   11    -77.8559868284130800    -2.53e-09  2.96e-07  4.07e-06  1.81e-06     0.1
   12    -77.8559868284499430    -3.69e-11  9.28e-08  1.39e-06  4.89e-07     0.1
                 **** Energy Check signals convergence ****

               *****************************************************
               *                     SUCCESS                       *
               *           SCF CONVERGED AFTER  12 CYCLES          *
               *****************************************************

             **** ENERGY FILE WAS UPDATED (C2H4_Freq-LDA.en.tmp) ****

----------------
TOTAL SCF ENERGY
----------------

Total Energy       :        -77.85598682844994 Eh           -2118.56911 eV

Components:
Nuclear Repulsion  :         33.42349776410668 Eh             909.49961 eV
Electronic Energy  :       -111.27948459255663 Eh           -3028.06872 eV
One Electron Energy:       -170.41269758044086 Eh           -4637.16525 eV
Two Electron Energy:         59.13321298788423 Eh            1609.09653 eV

Virial components:
Potential Energy   :       -155.10932834860813 Eh           -4220.73940 eV
Kinetic Energy     :         77.25334152015819 Eh            2102.17030 eV
Virial Ratio       :          2.00780089632931

DFT components:
N(Alpha)           :        8.000016135155 electrons
N(Beta)            :        8.000016135155 electrons
N(Total)           :       16.000032270311 electrons
E(X)               :      -10.499258925885 Eh       
E(C)               :       -0.985846491721 Eh       
E(XC)              :      -11.485105417605 Eh       

---------------
SCF CONVERGENCE
---------------

  Last Energy change         ...    3.6863e-11  Tolerance :   1.0000e-09
  Last MAX-Density change    ...    1.3949e-06  Tolerance :   1.0000e-08
  Last RMS-Density change    ...    9.2769e-08  Tolerance :   1.0000e-09
  Last DIIS Error            ...    1.6883e-03  Tolerance :   1.0000e-08
  Last Orbital Gradient      ...    4.8927e-07  Tolerance :   2.0000e-06
  Last Orbital Rotation      ...    8.2347e-07  Tolerance :   2.0000e-06


----------------
ORBITAL ENERGIES
----------------

  NO   OCC          E(Eh)            E(eV) 
   0   2.0000      -9.782471      -266.1946 
   1   2.0000      -9.781791      -266.1761 
   2   2.0000      -0.687831       -18.7168 
   3   2.0000      -0.521322       -14.1859 
   4   2.0000      -0.424593       -11.5538 
   5   2.0000      -0.376926       -10.2567 
   6   2.0000      -0.312328        -8.4989 
   7   2.0000      -0.254719        -6.9313 
   8   0.0000      -0.044761        -1.2180 
   9   0.0000       0.043538         1.1847 
  10   0.0000       0.067856         1.8465 
  11   0.0000       0.073477         1.9994 
  12   0.0000       0.136696         3.7197 
  13   0.0000       0.165043         4.4910 
  14   0.0000       0.181106         4.9281 
  15   0.0000       0.189789         5.1644 
  16   0.0000       0.195303         5.3145 
  17   0.0000       0.235755         6.4152 
  18   0.0000       0.276162         7.5148 
*Only the first 10 virtual orbitals were printed.

                    ********************************
                    * MULLIKEN POPULATION ANALYSIS *
                    ********************************

-----------------------
MULLIKEN ATOMIC CHARGES
-----------------------
   0 C :   -0.290771
   1 C :   -0.290771
   2 H :    0.145385
   3 H :    0.145385
   4 H :    0.145385
   5 H :    0.145385
Sum of atomic charges:   -0.0000000

--------------------------------
MULLIKEN REDUCED ORBITAL CHARGES
--------------------------------
  0 C s       :     3.283233  s :     3.283233
      pz      :     0.962212  p :     2.950748
      px      :     0.938194
      py      :     1.050342
      dz2     :     0.004205  d :     0.053145
      dxz     :     0.010189
      dyz     :     0.000000
      dx2y2   :    -0.001125
      dxy     :     0.039876
      f0      :     0.000856  f :     0.003645
      f+1     :     0.000100
      f-1     :     0.000556
      f+2     :     0.000660
      f-2     :     0.000000
      f+3     :     0.000338
      f-3     :     0.001135

  1 C s       :     3.283233  s :     3.283233
      pz      :     0.962212  p :     2.950748
      px      :     0.938194
      py      :     1.050342
      dz2     :     0.004205  d :     0.053145
      dxz     :     0.010189
      dyz     :     0.000000
      dx2y2   :    -0.001125
      dxy     :     0.039876
      f0      :     0.000856  f :     0.003645
      f+1     :     0.000100
      f-1     :     0.000556
      f+2     :     0.000660
      f-2     :    -0.000000
      f+3     :     0.000338
      f-3     :     0.001135

  2 H s       :     0.823198  s :     0.823198
      pz      :     0.012395  p :     0.030503
      px      :     0.008155
      py      :     0.009953
      dz2     :    -0.000111  d :     0.000913
      dxz     :     0.000250
      dyz     :     0.000396
      dx2y2   :     0.000493
      dxy     :    -0.000114

  3 H s       :     0.823198  s :     0.823198
      pz      :     0.012395  p :     0.030503
      px      :     0.008155
      py      :     0.009953
      dz2     :    -0.000111  d :     0.000913
      dxz     :     0.000250
      dyz     :     0.000396
      dx2y2   :     0.000493
      dxy     :    -0.000114

  4 H s       :     0.823198  s :     0.823198
      pz      :     0.012395  p :     0.030503
      px      :     0.008155
      py      :     0.009953
      dz2     :    -0.000111  d :     0.000913
      dxz     :     0.000250
      dyz     :     0.000396
      dx2y2   :     0.000493
      dxy     :    -0.000114

  5 H s       :     0.823198  s :     0.823198
      pz      :     0.012395  p :     0.030503
      px      :     0.008155
      py      :     0.009953
      dz2     :    -0.000111  d :     0.000913
      dxz     :     0.000250
      dyz     :     0.000396
      dx2y2   :     0.000493
      dxy     :    -0.000114



                     *******************************
                     * LOEWDIN POPULATION ANALYSIS *
                     *******************************

----------------------
LOEWDIN ATOMIC CHARGES
----------------------
   0 C :   -0.010416
   1 C :   -0.010416
   2 H :    0.005208
   3 H :    0.005208
   4 H :    0.005208
   5 H :    0.005208

-------------------------------
LOEWDIN REDUCED ORBITAL CHARGES
-------------------------------
  0 C s       :     2.773973  s :     2.773973
      pz      :     0.860244  p :     2.951733
      px      :     1.068368
      py      :     1.023121
      dz2     :     0.015991  d :     0.257357
      dxz     :     0.034738
      dyz     :    -0.000000
      dx2y2   :     0.058020
      dxy     :     0.148608
      f0      :     0.000902  f :     0.027354
      f+1     :     0.003503
      f-1     :     0.002135
      f+2     :     0.004761
      f-2     :     0.000000
      f+3     :     0.006563
      f-3     :     0.009490

  1 C s       :     2.773973  s :     2.773973
      pz      :     0.860244  p :     2.951733
      px      :     1.068368
      py      :     1.023121
      dz2     :     0.015991  d :     0.257357
      dxz     :     0.034738
      dyz     :    -0.000000
      dx2y2   :     0.058020
      dxy     :     0.148608
      f0      :     0.000902  f :     0.027354
      f+1     :     0.003503
      f-1     :     0.002135
      f+2     :     0.004761
      f-2     :    -0.000000
      f+3     :     0.006563
      f-3     :     0.009490

  2 H s       :     0.812773  s :     0.812773
      pz      :     0.041394  p :     0.153197
      px      :     0.045689
      py      :     0.066114
      dz2     :     0.002658  d :     0.028822
      dxz     :     0.002598
      dyz     :     0.005685
      dx2y2   :     0.009424
      dxy     :     0.008456

  3 H s       :     0.812773  s :     0.812773
      pz      :     0.041394  p :     0.153197
      px      :     0.045689
      py      :     0.066114
      dz2     :     0.002658  d :     0.028822
      dxz     :     0.002598
      dyz     :     0.005685
      dx2y2   :     0.009424
      dxy     :     0.008456

  4 H s       :     0.812773  s :     0.812773
      pz      :     0.041394  p :     0.153197
      px      :     0.045689
      py      :     0.066114
      dz2     :     0.002658  d :     0.028822
      dxz     :     0.002598
      dyz     :     0.005685
      dx2y2   :     0.009424
      dxy     :     0.008456

  5 H s       :     0.812773  s :     0.812773
      pz      :     0.041394  p :     0.153197
      px      :     0.045689
      py      :     0.066114
      dz2     :     0.002658  d :     0.028822
      dxz     :     0.002598
      dyz     :     0.005685
      dx2y2   :     0.009424
      dxy     :     0.008456



                      *****************************
                      * MAYER POPULATION ANALYSIS *
                      *****************************

  NA   - Mulliken gross atomic population
  ZA   - Total nuclear charge
  QA   - Mulliken gross atomic charge
  VA   - Mayer's total valence
  BVA  - Mayer's bonded valence
  FA   - Mayer's free valence

  ATOM       NA         ZA         QA         VA         BVA        FA
  0 C      6.2908     6.0000    -0.2908     3.8524     3.8524    -0.0000
  1 C      6.2908     6.0000    -0.2908     3.8524     3.8524    -0.0000
  2 H      0.8546     1.0000     0.1454     0.9862     0.9862    -0.0000
  3 H      0.8546     1.0000     0.1454     0.9862     0.9862    -0.0000
  4 H      0.8546     1.0000     0.1454     0.9862     0.9862    -0.0000
  5 H      0.8546     1.0000     0.1454     0.9862     0.9862    -0.0000

  Mayer bond orders larger than 0.100000
B(  0-C ,  1-C ) :   1.8984 B(  0-C ,  2-H ) :   0.9615 B(  0-C ,  3-H ) :   0.9615 
B(  1-C ,  4-H ) :   0.9615 B(  1-C ,  5-H ) :   0.9615 

-------
TIMINGS
-------

Total SCF time: 0 days 0 hours 0 min 2 sec 

Total time                  ....       2.266 sec
Sum of individual times     ....       2.235 sec  ( 98.6%)

SCF preparation             ....       0.038 sec  (  1.7%)
Fock matrix formation       ....       1.290 sec  ( 56.9%)
  Startup                   ....       0.021 sec  (  1.6% of F)
  Split-RI-J                ....       0.315 sec  ( 24.4% of F)
  XC integration            ....       0.916 sec  ( 71.0% of F)
    Basis function eval.    ....       0.198 sec  ( 21.6% of XC)
    Density eval.           ....       0.244 sec  ( 26.6% of XC)
    XC-Functional eval.     ....       0.033 sec  (  3.6% of XC)
    XC-Potential eval.      ....       0.376 sec  ( 41.0% of XC)
Diagonalization             ....       0.000 sec  (  0.0%)
Density matrix formation    ....       0.407 sec  ( 18.0%)
Total Energy calculation    ....       0.113 sec  (  5.0%)
Population analysis         ....       0.031 sec  (  1.4%)
Orbital Transformation      ....       0.019 sec  (  0.8%)
Orbital Orthonormalization  ....       0.000 sec  (  0.0%)
DIIS solution               ....       0.206 sec  (  9.1%)
SOSCF solution              ....       0.131 sec  (  5.8%)
Finished LeanSCF after   2.3 sec

Maximum memory used throughout the entire LEANSCF-calculation: 8.7 MB

-------------------------   --------------------
FINAL SINGLE POINT ENERGY       -77.855986828450
-------------------------   --------------------

------------------------------------------------------------------------------
                         ORCA SCF GRADIENT CALCULATION
------------------------------------------------------------------------------

Nuc. rep. gradient        (SHARK) ... done (  0.0 sec)
HCore & Overlap gradient  (SHARK) ... done (  0.0 sec)
Split-RIJ-J gradient      (SHARK) ... done (  0.1 sec)
XC gradient                       ... done (  0.3 sec)

------------------
CARTESIAN GRADIENT
------------------

   1   C   :    0.016741249    0.000000000    0.000000000
   2   C   :   -0.016741249   -0.000000000   -0.000000000
   3   H   :   -0.004081138    0.007049317    0.000000000
   4   H   :   -0.004081137   -0.007049316   -0.000000000
   5   H   :    0.004081138    0.007049316   -0.000000000
   6   H   :    0.004081137   -0.007049316    0.000000000

Difference to translation invariance:
           :   -0.0000000000    0.0000000000    0.0000000000

Difference to rotation invariance:
           :    0.0000000003   -0.0000000001    0.0000000005

Norm of the Cartesian gradient     ...    0.0287390507
RMS gradient                       ...    0.0067738592
MAX gradient                       ...    0.0167412494

-------
TIMINGS
-------

Total SCF gradient time     ....        0.475 sec

One electron gradient       ....       0.023 sec  (  4.8%)
RI-J Coulomb gradient       ....       0.146 sec  ( 30.7%)
XC gradient                 ....       0.306 sec  ( 64.4%)

Maximum memory used throughout the entire SCFGRAD-calculation: 10.2 MB
------------------------------------------------------------------------------
                         ORCA GEOMETRY RELAXATION STEP
------------------------------------------------------------------------------

Reading the OPT-File                    .... done
Getting information on internals        .... done
Copying old internal coords+grads       .... done
Making the new internal coordinates     .... (2022 redundants) done
Validating the new internal coordinates .... (2022 redundants) done
Calculating the B-matrix                .... done
Calculating the G,G- and P matrices     .... done
Transforming gradient to internals      .... done
Projecting the internal gradient        .... done
Number of atoms                         ....   6
Number of internal coordinates          ....  15
Current Energy                          ....   -77.855986828 Eh
Current gradient norm                   ....     0.028739051 Eh/bohr
Maximum allowed component of the step   ....  0.300
Current trust radius                    ....  0.300
Evaluating the initial hessian          ....  (Almloef) done
Projecting the Hessian                  .... done
Forming the augmented Hessian           .... done
Diagonalizing the augmented Hessian     .... done
Last element of RFO vector              ....  0.998982861
Lowest eigenvalues of augmented Hessian:
 -0.000807845  0.043172806  0.043172806  0.043172806  0.318678080
Length of the computed step             ....  0.045137420
The final length of the internal step   ....  0.045137420
Converting the step to Cartesian space:
 Initial RMS(Int)=    0.0116544317
Transforming coordinates:
 Iter   0:  RMS(Cart)=    0.0095111025 RMS(Int)=    2.2943244835
done
Storing new coordinates                 .... done

                                .--------------------.
          ----------------------|Geometry convergence|-------------------------
          Item                value                   Tolerance       Converged
          ---------------------------------------------------------------------
          RMS gradient        0.0047543928            0.0000100000      NO
          MAX gradient        0.0085789739            0.0001000000      NO
          RMS step            0.0116544317            0.0000100000      NO
          MAX step            0.0218677509            0.0001000000      NO
          ........................................................
          Max(Bonds)      0.0116      Max(Angles)    0.05
          Max(Dihed)        0.00      Max(Improp)    0.00
          ---------------------------------------------------------------------

The optimization has not yet converged - more geometry cycles are needed


    ---------------------------------------------------------------------------
                         Redundant Internal Coordinates
                            (Angstroem and degrees)

        Definition                    Value    dE/dq     Step     New-Value
    ----------------------------------------------------------------------------
     1. B(C   1,C   0)                1.3312  0.008579 -0.0058    1.3253   
     2. B(H   2,C   0)                1.0815 -0.008143  0.0116    1.0930   
     3. B(H   3,C   0)                1.0815 -0.008143  0.0116    1.0930   
     4. B(H   4,C   1)                1.0815 -0.008143  0.0116    1.0930   
     5. B(H   5,C   1)                1.0815 -0.008143  0.0116    1.0930   
     6. A(H   2,C   0,H   3)          116.87 -0.000289    0.05    116.93   
     7. A(C   1,C   0,H   2)          121.56  0.000145   -0.03    121.54   
     8. A(C   1,C   0,H   3)          121.56  0.000145   -0.03    121.54   
     9. A(H   4,C   1,H   5)          116.87 -0.000289    0.05    116.93   
    10. A(C   0,C   1,H   5)          121.56  0.000145   -0.03    121.54   
    11. A(C   0,C   1,H   4)          121.56  0.000145   -0.03    121.54   
    12. D(H   4,C   1,C   0,H   3)    180.00 -0.000000    0.00    180.00   
    13. D(H   5,C   1,C   0,H   2)    180.00 -0.000000    0.00    180.00   
    14. D(H   5,C   1,C   0,H   3)      0.00 -0.000000    0.00      0.00   
    15. D(H   4,C   1,C   0,H   2)      0.00 -0.000000    0.00      0.00   
    ----------------------------------------------------------------------------

Geometry step timings:
Preparation and reading OPT file:      0.000 s ( 0.000 %)
Internal coordinates            :      0.000 s ( 0.000 %)
B/P matrices and projection     :      0.000 s ( 0.000 %)
Hessian update/contruction      :      0.001 s (50.000 %)
Making the step                 :      0.000 s ( 0.000 %)
Converting the step to Cartesian:      0.000 s ( 0.000 %)
Storing new data                :      0.000 s ( 0.000 %)
Checking convergence            :      0.000 s ( 0.000 %)
Final printing                  :      0.001 s (50.000 %)
Total time                      :      0.002 s

Time for energy+gradient        :      3.197 s
Time for complete geometry iter :      3.248 s

         *************************************************************
         *                GEOMETRY OPTIMIZATION CYCLE   2            *
         *************************************************************
---------------------------------
CARTESIAN COORDINATES (ANGSTROEM)
---------------------------------
  C      0.662670   -0.000000    0.000000
  C     -0.662670   -0.000000    0.000000
  H      1.234382   -0.931612   -0.000000
  H      1.234382    0.931612    0.000000
  H     -1.234382   -0.931612    0.000000
  H     -1.234382    0.931612   -0.000000

----------------------------
CARTESIAN COORDINATES (A.U.)
----------------------------
  NO LB      ZA    FRAG     MASS         X           Y           Z
   0 C     6.0000    0    12.011    1.252264   -0.000000    0.000000
   1 C     6.0000    0    12.011   -1.252264   -0.000000    0.000000
   2 H     1.0000    0     1.008    2.332644   -1.760492   -0.000000
   3 H     1.0000    0     1.008    2.332644    1.760492    0.000000
   4 H     1.0000    0     1.008   -2.332644   -1.760492    0.000000
   5 H     1.0000    0     1.008   -2.332644    1.760492   -0.000000

--------------------------------
INTERNAL COORDINATES (ANGSTROEM)
--------------------------------
 C      0   0   0     0.000000000000     0.00000000     0.00000000
 C      1   0   0     1.325339604358     0.00000000     0.00000000
 H      1   2   0     1.093049140610   121.53660950     0.00000000
 H      1   2   3     1.093049139824   121.53660930   180.00000000
 H      2   1   3     1.093049140178   121.53660945     0.00000000
 H      2   1   3     1.093049139553   121.53660933   180.00000085

---------------------------
INTERNAL COORDINATES (A.U.)
---------------------------
 C      0   0   0     0.000000000000     0.00000000     0.00000000
 C      1   0   0     2.504528886676     0.00000000     0.00000000
 H      1   2   0     2.065563526672   121.53660950     0.00000000
 H      1   2   3     2.065563525186   121.53660930   180.00000000
 H      2   1   3     2.065563525855   121.53660945     0.00000000
 H      2   1   3     2.065563524673   121.53660933   180.00000085

------------------------------------------------------------------------------
                   ___                                                        
                  /   \      - P O W E R E D   B Y -                         
                 /     \                                                     
                 |  |  |   _    _      __       _____    __    __             
                 |  |  |  | |  | |    /  \     |  _  \  |  |  /  |          
                  \  \/   | |  | |   /    \    | | | |  |  | /  /          
                 / \  \   | |__| |  /  /\  \   | |_| |  |  |/  /          
                |  |  |   |  __  | /  /__\  \  |    /   |      \           
                |  |  |   | |  | | |   __   |  |    \   |  |\   \          
                \     /   | |  | | |  |  |  |  | |\  \  |  | \   \       
                 \___/    |_|  |_| |__|  |__|  |_| \__\ |__|  \__/        
                                                                              
                      - O R C A' S   B I G   F R I E N D -                    
                                      &                                       
                       - I N T E G R A L  F E E D E R -                       
                                                                              
 v1 FN, 2020, v2 2021, v3 2022-2024                                           
------------------------------------------------------------------------------


----------------------
SHARK INTEGRAL PACKAGE
----------------------

Number of atoms                             ...      6
Number of basis functions                   ...    118
Number of shells                            ...     46
Maximum angular momentum                    ...      3
Integral batch strategy                     ... SHARK/LIBINT Hybrid
RI-J (if used) integral strategy            ... SPLIT-RIJ (Revised 2003 algorithm where possible)
Printlevel                                  ...      1
Contraction scheme used                     ... SEGMENTED contraction
Prescreening option                         ... SCHWARTZ
   Thresh                                   ... 1.000e-12
   Tcut                                     ... 1.000e-14
   Tpresel                                  ... 1.000e-14 
Coulomb Range Separation                    ... NOT USED
Exchange Range Separation                   ... NOT USED
Multipole approximations                    ... NOT USED
Finite Nucleus Model                        ... NOT USED
CABS basis                                  ... NOT available
Auxiliary Coulomb fitting basis             ... AVAILABLE
   # of basis functions in Aux-J            ...    142
   # of shells in Aux-J                     ...     50
   Maximum angular momentum in Aux-J        ...      4
Auxiliary J/K fitting basis                 ... NOT available
Auxiliary Correlation fitting basis         ... NOT available
Auxiliary 'external' fitting basis          ... NOT available

Checking pre-screening integrals            ... done (  0.0 sec) Dimension = 46
Check shell pair data                       ... done (  0.0 sec)
Shell pair information
Shell pair cut-off parameter TPreSel        ...   1.0e-14
Total number of shell pairs                 ...      1081
Shell pairs after pre-screening             ...      1080
Total number of primitive shell pairs       ...      2684
Primitive shell pairs kept                  ...      2469
          la=0 lb=0:    252 shell pairs
          la=1 lb=0:    308 shell pairs
          la=1 lb=1:    105 shell pairs
          la=2 lb=0:    176 shell pairs
          la=2 lb=1:    112 shell pairs
          la=2 lb=2:     36 shell pairs
          la=3 lb=0:     44 shell pairs
          la=3 lb=1:     28 shell pairs
          la=3 lb=2:     16 shell pairs
          la=3 lb=3:      3 shell pairs

Calculating one electron integrals          ... done (  0.0 sec)
Calculating RI/J V-Matrix + Cholesky decomp.... done (  0.0 sec)
Calculating Nuclear repulsion               ... done (  0.0 sec) ENN=     33.341196540375 Eh

Diagonalization of the overlap matrix:
Smallest eigenvalue                        ... 1.838e-04
Time for diagonalization                   ...    0.001 sec
Threshold for overlap eigenvalues          ... 1.000e-07
Number of eigenvalues below threshold      ... 0
Time for construction of square roots      ...    0.001 sec
Total time needed                          ...    0.007 sec

-------------------
DFT GRID GENERATION
-------------------

General Integration Accuracy     IntAcc      ... 4.388
Radial Grid Type                 RadialGrid  ... OptM3 with GC (2021)
Angular Grid (max. ang.)         AngularGrid ... 4 (Lebedev-302)
Angular grid pruning method      GridPruning ... 4 (adaptive)
Weight generation scheme         WeightScheme... mBecke (2022)
Basis function cutoff            BFCut       ... 1.0000e-12
Integration weight cutoff        WCut        ... 1.0000e-14
Partially contracted basis set               ... off
Rotationally invariant grid construction     ... off
Angular grids for H and He will be reduced by one unit

Total number of grid points                  ...    25284
Total number of batches                      ...      398
Average number of points per batch           ...       63
Average number of grid points per atom       ...     4214
Initializing property integral containers    ... done (  0.0 sec)

SHARK setup successfully completed in   0.1 seconds

Maximum memory used throughout the entire STARTUP-calculation: 13.9 MB
Occupation numbers will be reassigned to an Aufbau configuration
             **** ENERGY FILE WAS UPDATED (C2H4_Freq-LDA.en.tmp) ****
Finished Guess after   0.1 sec
Maximum memory used throughout the entire GUESS-calculation: 9.5 MB
----------------------------------------D-I-I-S--------------------------------------------
Iteration    Energy (Eh)           Delta-E    RMSDP     MaxDP     DIISErr   Damp  Time(sec)
-------------------------------------------------------------------------------------------
               ***  Starting incremental Fock matrix formation  ***
    1    -77.8563089317428023     0.00e+00  6.93e-05  1.10e-03  5.98e-03  0.700   0.2
    2    -77.8563449996417489    -3.61e-05  5.52e-05  8.15e-04  4.09e-03  0.700   0.2
                               ***Turning on AO-DIIS***
                              *** Initializing SOSCF ***
---------------------------------------S-O-S-C-F--------------------------------------
Iteration    Energy (Eh)           Delta-E    RMSDP     MaxDP     MaxGrad    Time(sec)
--------------------------------------------------------------------------------------
    3    -77.8563690037159972    -2.40e-05  1.37e-04  2.17e-03  2.76e-03     0.2
               *** Restarting incremental Fock matrix formation ***
    4    -77.8564200318220969    -5.10e-05  1.91e-05  3.35e-04  1.66e-04     0.2
    5    -77.8564198383395762     1.93e-07  8.72e-06  1.66e-04  2.19e-04     0.1
    6    -77.8564203893599824    -5.51e-07  1.31e-06  2.26e-05  1.03e-05     0.2
    7    -77.8564203914659743    -2.11e-09  3.43e-07  7.17e-06  4.86e-06     0.1
    8    -77.8564203917858038    -3.20e-10  4.20e-08  6.49e-07  5.77e-07     0.1
                 **** Energy Check signals convergence ****

               *****************************************************
               *                     SUCCESS                       *
               *           SCF CONVERGED AFTER   8 CYCLES          *
               *****************************************************

             **** ENERGY FILE WAS UPDATED (C2H4_Freq-LDA.en.tmp) ****

----------------
TOTAL SCF ENERGY
----------------

Total Energy       :        -77.85642039178580 Eh           -2118.58091 eV

Components:
Nuclear Repulsion  :         33.34119654037497 Eh             907.26008 eV
Electronic Energy  :       -111.19761693216078 Eh           -3025.84099 eV
One Electron Energy:       -170.26596811246714 Eh           -4633.17254 eV
Two Electron Energy:         59.06835118030635 Eh            1607.33155 eV

Virial components:
Potential Energy   :       -155.06482450755681 Eh           -4219.52839 eV
Kinetic Energy     :         77.20840411577102 Eh            2100.94749 eV
Virial Ratio       :          2.00839307952853

DFT components:
N(Alpha)           :        8.000015614566 electrons
N(Beta)            :        8.000015614566 electrons
N(Total)           :       16.000031229132 electrons
E(X)               :      -10.487605897520 Eh       
E(C)               :       -0.985111892622 Eh       
E(XC)              :      -11.472717790142 Eh       

---------------
SCF CONVERGENCE
---------------

  Last Energy change         ...    3.1983e-10  Tolerance :   1.0000e-09
  Last MAX-Density change    ...    6.4881e-07  Tolerance :   1.0000e-08
  Last RMS-Density change    ...    4.1993e-08  Tolerance :   1.0000e-09
  Last DIIS Error            ...    2.7559e-03  Tolerance :   1.0000e-08
  Last Orbital Gradient      ...    5.7654e-07  Tolerance :   2.0000e-06
  Last Orbital Rotation      ...    5.9347e-07  Tolerance :   2.0000e-06


Total SCF time: 0 days 0 hours 0 min 1 sec 
Finished LeanSCF after   1.5 sec

Maximum memory used throughout the entire LEANSCF-calculation: 8.9 MB

-------------------------   --------------------
FINAL SINGLE POINT ENERGY       -77.856420391786
-------------------------   --------------------

------------------------------------------------------------------------------
                         ORCA SCF GRADIENT CALCULATION
------------------------------------------------------------------------------

Nuc. rep. gradient        (SHARK) ... done (  0.0 sec)
HCore & Overlap gradient  (SHARK) ... done (  0.0 sec)
Split-RIJ-J gradient      (SHARK) ... done (  0.2 sec)
XC gradient                       ... done (  0.3 sec)

------------------
CARTESIAN GRADIENT
------------------

   1   C   :    0.003131638   -0.000000000   -0.000000000
   2   C   :   -0.003131638    0.000000000   -0.000000000
   3   H   :   -0.000420920    0.000302915   -0.000000000
   4   H   :   -0.000420921   -0.000302915    0.000000000
   5   H   :    0.000420921    0.000302915    0.000000000
   6   H   :    0.000420920   -0.000302915   -0.000000000

Difference to translation invariance:
           :   -0.0000000000   -0.0000000000    0.0000000000

Difference to rotation invariance:
           :   -0.0000000007    0.0000000004    0.0000000010

Norm of the Cartesian gradient     ...    0.0045486302
RMS gradient                       ...    0.0010721224
MAX gradient                       ...    0.0031316378

-------
TIMINGS
-------

Total SCF gradient time     ....        0.503 sec

One electron gradient       ....       0.024 sec  (  4.8%)
RI-J Coulomb gradient       ....       0.158 sec  ( 31.4%)
XC gradient                 ....       0.321 sec  ( 63.8%)

Maximum memory used throughout the entire SCFGRAD-calculation: 10.2 MB
------------------------------------------------------------------------------
                         ORCA GEOMETRY RELAXATION STEP
------------------------------------------------------------------------------

Reading the OPT-File                    .... done
Getting information on internals        .... done
Copying old internal coords+grads       .... done
Making the new internal coordinates     .... (2022 redundants) done
Validating the new internal coordinates .... (2022 redundants) done
Calculating the B-matrix                .... done
Calculating the G,G- and P matrices     .... done
Transforming gradient to internals      .... done
Projecting the internal gradient        .... done
Number of atoms                         ....   6
Number of internal coordinates          ....  15
Current Energy                          ....   -77.856420392 Eh
Current gradient norm                   ....     0.004548630 Eh/bohr
Maximum allowed component of the step   ....  0.300
Current trust radius                    ....  0.300
Updating the Hessian (BFGS)             .... done
Forming the augmented Hessian           .... done
Diagonalizing the augmented Hessian     .... done
Last element of RFO vector              ....  0.999988513
Lowest eigenvalues of augmented Hessian:
 -0.000011259  0.043172806  0.043172806  0.043172806  0.316882299
Length of the computed step             ....  0.004793156
The final length of the internal step   ....  0.004793156
Converting the step to Cartesian space:
 Initial RMS(Int)=    0.0012375875
Transforming coordinates:
 Iter   0:  RMS(Cart)=    0.0006677113 RMS(Int)=    1.6223119411
done
Storing new coordinates                 .... done
The predicted energy change is          ....    -0.000005630
Previously predicted energy change      ....    -0.000404745
Actually observed energy change         ....    -0.000433563
Ratio of predicted to observed change   ....     1.071200546
New trust radius                        ....     0.450000000

                                .--------------------.
          ----------------------|Geometry convergence|-------------------------
          Item                value                   Tolerance       Converged
          ---------------------------------------------------------------------
          Energy change      -0.0004335633            0.0000010000      NO
          RMS gradient        0.0006525161            0.0000100000      NO
          MAX gradient        0.0022897969            0.0001000000      NO
          RMS step            0.0012375875            0.0000100000      NO
          MAX step            0.0032890692            0.0001000000      NO
          ........................................................
          Max(Bonds)      0.0017      Max(Angles)    0.05
          Max(Dihed)        0.00      Max(Improp)    0.00
          ---------------------------------------------------------------------

The optimization has not yet converged - more geometry cycles are needed


    ---------------------------------------------------------------------------
                         Redundant Internal Coordinates
                            (Angstroem and degrees)

        Definition                    Value    dE/dq     Step     New-Value
    ----------------------------------------------------------------------------
     1. B(C   1,C   0)                1.3253  0.002290 -0.0017    1.3236   
     2. B(H   2,C   0)                1.0930 -0.000478  0.0008    1.0939   
     3. B(H   3,C   0)                1.0930 -0.000478  0.0008    1.0939   
     4. B(H   4,C   1)                1.0930 -0.000478  0.0008    1.0939   
     5. B(H   5,C   1)                1.0930 -0.000478  0.0008    1.0939   
     6. A(H   2,C   0,H   3)          116.93  0.000276   -0.05    116.87   
     7. A(C   1,C   0,H   2)          121.54 -0.000138    0.03    121.56   
     8. A(C   1,C   0,H   3)          121.54 -0.000138    0.03    121.56   
     9. A(H   4,C   1,H   5)          116.93  0.000276   -0.05    116.87   
    10. A(C   0,C   1,H   5)          121.54 -0.000138    0.03    121.56   
    11. A(C   0,C   1,H   4)          121.54 -0.000138    0.03    121.56   
    12. D(H   4,C   1,C   0,H   3)   -180.00  0.000000   -0.00   -180.00   
    13. D(H   5,C   1,C   0,H   2)   -180.00  0.000000   -0.00   -180.00   
    14. D(H   5,C   1,C   0,H   3)      0.00  0.000000   -0.00      0.00   
    15. D(H   4,C   1,C   0,H   2)      0.00  0.000000   -0.00     -0.00   
    ----------------------------------------------------------------------------

Geometry step timings:
Preparation and reading OPT file:      0.004 s (66.667 %)
Internal coordinates            :      0.000 s ( 0.000 %)
B/P matrices and projection     :      0.001 s (16.667 %)
Hessian update/contruction      :      0.000 s ( 0.000 %)
Making the step                 :      0.000 s ( 0.000 %)
Converting the step to Cartesian:      0.001 s (16.667 %)
Storing new data                :      0.000 s ( 0.000 %)
Checking convergence            :      0.000 s ( 0.000 %)
Final printing                  :      0.000 s ( 0.000 %)
Total time                      :      0.006 s

Time for energy+gradient        :      2.313 s
Time for complete geometry iter :      2.362 s

         *************************************************************
         *                GEOMETRY OPTIMIZATION CYCLE   3            *
         *************************************************************
---------------------------------
CARTESIAN COORDINATES (ANGSTROEM)
---------------------------------
  C      0.661800   -0.000000    0.000000
  C     -0.661800   -0.000000    0.000000
  H      1.234375   -0.932040    0.000000
  H      1.234375    0.932040   -0.000000
  H     -1.234375   -0.932040   -0.000000
  H     -1.234375    0.932040   -0.000000

----------------------------
CARTESIAN COORDINATES (A.U.)
----------------------------
  NO LB      ZA    FRAG     MASS         X           Y           Z
   0 C     6.0000    0    12.011    1.250620   -0.000000    0.000000
   1 C     6.0000    0    12.011   -1.250620   -0.000000    0.000000
   2 H     1.0000    0     1.008    2.332631   -1.761301    0.000000
   3 H     1.0000    0     1.008    2.332631    1.761301   -0.000000
   4 H     1.0000    0     1.008   -2.332631   -1.761301   -0.000000
   5 H     1.0000    0     1.008   -2.332631    1.761301   -0.000000

--------------------------------
INTERNAL COORDINATES (ANGSTROEM)
--------------------------------
 C      0   0   0     0.000000000000     0.00000000     0.00000000
 C      1   0   0     1.323599103916     0.00000000     0.00000000
 H      1   2   0     1.093865551771   121.56346071     0.00000000
 H      1   2   3     1.093865551495   121.56346060   180.00000000
 H      2   1   3     1.093865551936   121.56346073     0.00000000
 H      2   1   3     1.093865550832   121.56346052   180.00000000

---------------------------
INTERNAL COORDINATES (A.U.)
---------------------------
 C      0   0   0     0.000000000000     0.00000000     0.00000000
 C      1   0   0     2.501239817504     0.00000000     0.00000000
 H      1   2   0     2.067106320177   121.56346071     0.00000000
 H      1   2   3     2.067106319655   121.56346060   180.00000000
 H      2   1   3     2.067106320489   121.56346073     0.00000000
 H      2   1   3     2.067106318404   121.56346052   180.00000000

------------------------------------------------------------------------------
                   ___                                                        
                  /   \      - P O W E R E D   B Y -                         
                 /     \                                                     
                 |  |  |   _    _      __       _____    __    __             
                 |  |  |  | |  | |    /  \     |  _  \  |  |  /  |          
                  \  \/   | |  | |   /    \    | | | |  |  | /  /          
                 / \  \   | |__| |  /  /\  \   | |_| |  |  |/  /          
                |  |  |   |  __  | /  /__\  \  |    /   |      \           
                |  |  |   | |  | | |   __   |  |    \   |  |\   \          
                \     /   | |  | | |  |  |  |  | |\  \  |  | \   \       
                 \___/    |_|  |_| |__|  |__|  |_| \__\ |__|  \__/        
                                                                              
                      - O R C A' S   B I G   F R I E N D -                    
                                      &                                       
                       - I N T E G R A L  F E E D E R -                       
                                                                              
 v1 FN, 2020, v2 2021, v3 2022-2024                                           
------------------------------------------------------------------------------


----------------------
SHARK INTEGRAL PACKAGE
----------------------

Number of atoms                             ...      6
Number of basis functions                   ...    118
Number of shells                            ...     46
Maximum angular momentum                    ...      3
Integral batch strategy                     ... SHARK/LIBINT Hybrid
RI-J (if used) integral strategy            ... SPLIT-RIJ (Revised 2003 algorithm where possible)
Printlevel                                  ...      1
Contraction scheme used                     ... SEGMENTED contraction
Prescreening option                         ... SCHWARTZ
   Thresh                                   ... 1.000e-12
   Tcut                                     ... 1.000e-14
   Tpresel                                  ... 1.000e-14 
Coulomb Range Separation                    ... NOT USED
Exchange Range Separation                   ... NOT USED
Multipole approximations                    ... NOT USED
Finite Nucleus Model                        ... NOT USED
CABS basis                                  ... NOT available
Auxiliary Coulomb fitting basis             ... AVAILABLE
   # of basis functions in Aux-J            ...    142
   # of shells in Aux-J                     ...     50
   Maximum angular momentum in Aux-J        ...      4
Auxiliary J/K fitting basis                 ... NOT available
Auxiliary Correlation fitting basis         ... NOT available
Auxiliary 'external' fitting basis          ... NOT available

Checking pre-screening integrals            ... done (  0.0 sec) Dimension = 46
Check shell pair data                       ... done (  0.0 sec)
Shell pair information
Shell pair cut-off parameter TPreSel        ...   1.0e-14
Total number of shell pairs                 ...      1081
Shell pairs after pre-screening             ...      1080
Total number of primitive shell pairs       ...      2684
Primitive shell pairs kept                  ...      2469
          la=0 lb=0:    252 shell pairs
          la=1 lb=0:    308 shell pairs
          la=1 lb=1:    105 shell pairs
          la=2 lb=0:    176 shell pairs
          la=2 lb=1:    112 shell pairs
          la=2 lb=2:     36 shell pairs
          la=3 lb=0:     44 shell pairs
          la=3 lb=1:     28 shell pairs
          la=3 lb=2:     16 shell pairs
          la=3 lb=3:      3 shell pairs

Calculating one electron integrals          ... done (  0.0 sec)
Calculating RI/J V-Matrix + Cholesky decomp.... done (  0.0 sec)
Calculating Nuclear repulsion               ... done (  0.0 sec) ENN=     33.352813179344 Eh

Diagonalization of the overlap matrix:
Smallest eigenvalue                        ... 1.819e-04
Time for diagonalization                   ...    0.001 sec
Threshold for overlap eigenvalues          ... 1.000e-07
Number of eigenvalues below threshold      ... 0
Time for construction of square roots      ...    0.001 sec
Total time needed                          ...    0.007 sec

-------------------
DFT GRID GENERATION
-------------------

General Integration Accuracy     IntAcc      ... 4.388
Radial Grid Type                 RadialGrid  ... OptM3 with GC (2021)
Angular Grid (max. ang.)         AngularGrid ... 4 (Lebedev-302)
Angular grid pruning method      GridPruning ... 4 (adaptive)
Weight generation scheme         WeightScheme... mBecke (2022)
Basis function cutoff            BFCut       ... 1.0000e-12
Integration weight cutoff        WCut        ... 1.0000e-14
Partially contracted basis set               ... off
Rotationally invariant grid construction     ... off
Angular grids for H and He will be reduced by one unit

Total number of grid points                  ...    25284
Total number of batches                      ...      398
Average number of points per batch           ...       63
Average number of grid points per atom       ...     4214
Initializing property integral containers    ... done (  0.0 sec)

SHARK setup successfully completed in   0.2 seconds

Maximum memory used throughout the entire STARTUP-calculation: 13.9 MB
Occupation numbers will be reassigned to an Aufbau configuration
             **** ENERGY FILE WAS UPDATED (C2H4_Freq-LDA.en.tmp) ****
Finished Guess after   0.1 sec
Maximum memory used throughout the entire GUESS-calculation: 9.5 MB
----------------------------------------D-I-I-S--------------------------------------------
Iteration    Energy (Eh)           Delta-E    RMSDP     MaxDP     DIISErr   Damp  Time(sec)
-------------------------------------------------------------------------------------------
               ***  Starting incremental Fock matrix formation  ***
                              *** Initializing SOSCF ***
---------------------------------------S-O-S-C-F--------------------------------------
Iteration    Energy (Eh)           Delta-E    RMSDP     MaxDP     MaxGrad    Time(sec)
--------------------------------------------------------------------------------------
    1    -77.8564252708115134     0.00e+00  2.89e-05  5.52e-04  7.50e-05     0.2
               *** Restarting incremental Fock matrix formation ***
    2    -77.8564267980808609    -1.53e-06  1.02e-05  1.67e-04  8.84e-05     0.1
    3    -77.8564268414731941    -4.34e-08  2.67e-06  4.28e-05  6.25e-05     0.1
    4    -77.8564268799439674    -3.85e-08  1.76e-06  2.93e-05  2.26e-05     0.1
    5    -77.8564268840858063    -4.14e-09  3.73e-07  7.55e-06  5.82e-06     0.1
    6    -77.8564268843793457    -2.94e-10  6.74e-08  8.43e-07  1.02e-06     0.1
                 **** Energy Check signals convergence ****

               *****************************************************
               *                     SUCCESS                       *
               *           SCF CONVERGED AFTER   6 CYCLES          *
[...]
Central differences            ... used
Number of displacements        ... 36
Numerical increment            ... 5.000e-03 bohr
IR-spectrum generation         ... on
Raman-spectrum generation      ... off
Surface Crossing Hessian       ... off

The output will be reduced. Please look at the following files:
SCF program output             ... >C2H4_Freq-LDA.lastscf
Integral program output        ... >C2H4_Freq-LDA.lastint
Gradient program output        ... >C2H4_Freq-LDA.lastgrad
Dipole moment program output   ... >C2H4_Freq-LDA.lastmom

	<< Calculating gradient on displaced geometry   1 (of  36) >>
	<< Calculating gradient on displaced geometry   2 (of  36) >>
	<< Calculating gradient on displaced geometry   3 (of  36) >>
	<< Calculating gradient on displaced geometry   4 (of  36) >>
	<< Calculating gradient on displaced geometry   5 (of  36) >>
	<< Calculating gradient on displaced geometry   6 (of  36) >>
	<< Calculating gradient on displaced geometry   7 (of  36) >>
	<< Calculating gradient on displaced geometry   8 (of  36) >>
	<< Calculating gradient on displaced geometry   9 (of  36) >>
	<< Calculating gradient on displaced geometry  10 (of  36) >>
	<< Calculating gradient on displaced geometry  11 (of  36) >>
	<< Calculating gradient on displaced geometry  12 (of  36) >>
	<< Calculating gradient on displaced geometry  13 (of  36) >>
	<< Calculating gradient on displaced geometry  14 (of  36) >>
	<< Calculating gradient on displaced geometry  15 (of  36) >>
	<< Calculating gradient on displaced geometry  16 (of  36) >>
	<< Calculating gradient on displaced geometry  17 (of  36) >>
	<< Calculating gradient on displaced geometry  18 (of  36) >>
	<< Calculating gradient on displaced geometry  19 (of  36) >>
	<< Calculating gradient on displaced geometry  20 (of  36) >>
	<< Calculating gradient on displaced geometry  21 (of  36) >>
	<< Calculating gradient on displaced geometry  22 (of  36) >>
	<< Calculating gradient on displaced geometry  23 (of  36) >>
	<< Calculating gradient on displaced geometry  24 (of  36) >>
	<< Calculating gradient on displaced geometry  25 (of  36) >>
	<< Calculating gradient on displaced geometry  26 (of  36) >>
	<< Calculating gradient on displaced geometry  27 (of  36) >>
	<< Calculating gradient on displaced geometry  28 (of  36) >>
	<< Calculating gradient on displaced geometry  29 (of  36) >>
	<< Calculating gradient on displaced geometry  30 (of  36) >>
	<< Calculating gradient on displaced geometry  31 (of  36) >>
	<< Calculating gradient on displaced geometry  32 (of  36) >>
	<< Calculating gradient on displaced geometry  33 (of  36) >>
	<< Calculating gradient on displaced geometry  34 (of  36) >>
	<< Calculating gradient on displaced geometry  35 (of  36) >>
	<< Calculating gradient on displaced geometry  36 (of  36) >>

-----------------------
VIBRATIONAL FREQUENCIES
-----------------------

Scaling factor for frequencies =  1.000000000  (already applied!)

     0:       0.00 cm**-1
     1:       0.00 cm**-1
     2:       0.00 cm**-1
     3:       0.00 cm**-1
     4:       0.00 cm**-1
     5:       0.00 cm**-1
     6:     798.84 cm**-1
     7:     928.85 cm**-1
     8:     940.23 cm**-1
     9:    1030.32 cm**-1
    10:    1185.12 cm**-1
    11:    1325.43 cm**-1
    12:    1396.88 cm**-1
    13:    1658.07 cm**-1
    14:    3049.02 cm**-1
    15:    3063.13 cm**-1
    16:    3128.55 cm**-1
    17:    3156.56 cm**-1


------------
NORMAL MODES
------------

These modes are the Cartesian displacements weighted by the diagonal matrix
M(i,i)=1/sqrt(m[i]) where m[i] is the mass of the displaced atom
Thus, these vectors are normalized but *not* orthogonal

                  0          1          2          3          4          5    
      0       0.000000   0.000000   0.000000   0.000000   0.000000   0.000000
      1       0.000000   0.000000   0.000000   0.000000   0.000000   0.000000
      2       0.000000   0.000000   0.000000   0.000000   0.000000   0.000000
      3       0.000000   0.000000   0.000000   0.000000   0.000000   0.000000
      4       0.000000   0.000000   0.000000   0.000000   0.000000   0.000000
      5       0.000000   0.000000   0.000000   0.000000   0.000000   0.000000
      6       0.000000   0.000000   0.000000   0.000000   0.000000   0.000000
      7       0.000000   0.000000   0.000000   0.000000   0.000000   0.000000
      8       0.000000   0.000000   0.000000   0.000000   0.000000   0.000000
      9       0.000000   0.000000   0.000000   0.000000   0.000000   0.000000
     10       0.000000   0.000000   0.000000   0.000000   0.000000   0.000000
     11       0.000000   0.000000   0.000000   0.000000   0.000000   0.000000
     12       0.000000   0.000000   0.000000   0.000000   0.000000   0.000000
     13       0.000000   0.000000   0.000000   0.000000   0.000000   0.000000
     14       0.000000   0.000000   0.000000   0.000000   0.000000   0.000000
     15       0.000000   0.000000   0.000000   0.000000   0.000000   0.000000
     16       0.000000   0.000000   0.000000   0.000000   0.000000   0.000000
     17       0.000000   0.000000   0.000000   0.000000   0.000000   0.000000
                  6          7          8          9         10         11    
      0      -0.000000   0.000000   0.000000  -0.000000  -0.000000   0.071739
      1       0.039600  -0.000000   0.000000   0.000000   0.154512   0.000000
      2       0.000000  -0.083335   0.153010   0.000000  -0.000000  -0.000000
      3       0.000000  -0.000000  -0.000000   0.000000   0.000000  -0.071739
      4       0.039600   0.000000  -0.000000  -0.000000  -0.154513  -0.000000
      5      -0.000000  -0.083341  -0.153006  -0.000000   0.000000   0.000000
      6      -0.439947   0.000001   0.000001  -0.000000  -0.467150   0.450077
      7      -0.235931   0.000000   0.000000   0.000000  -0.140834   0.211793
      8       0.000002   0.496506  -0.488166   0.500000  -0.000001   0.000001
      9       0.439947  -0.000000   0.000000  -0.000001   0.467147   0.450079
     10      -0.235931   0.000000  -0.000000   0.000001  -0.140832  -0.211793
     11      -0.000002   0.496506  -0.488166  -0.500000   0.000002  -0.000000
     12       0.439946  -0.000000  -0.000001  -0.000002  -0.467150  -0.450079
     13      -0.235930   0.000000   0.000000   0.000001   0.140834   0.211793
     14      -0.000001   0.496524   0.488142  -0.500000   0.000002  -0.000001
     15      -0.439945   0.000000   0.000000   0.000003   0.467151  -0.450078
     16      -0.235930   0.000000   0.000000   0.000001   0.140835  -0.211793
     17       0.000002   0.496524   0.488141   0.500000  -0.000002  -0.000000
                 12         13         14         15         16         17    
      0       0.068784   0.373304   0.042561   0.055239   0.000000   0.000000
      1      -0.000000  -0.000000  -0.000000   0.000000  -0.069666   0.070769
      2       0.000000   0.000000  -0.000000   0.000000  -0.000000  -0.000000
      3       0.068784  -0.373304   0.042562  -0.055238  -0.000000   0.000000
      4       0.000000   0.000000   0.000000  -0.000000   0.069666   0.070768
      5      -0.000000   0.000000   0.000000  -0.000000   0.000000   0.000000
      6      -0.409804  -0.171751  -0.253570  -0.254224  -0.264363   0.264057
      7      -0.282304  -0.388360   0.429876   0.428773   0.421529  -0.421627
      8       0.000000   0.000000   0.000000  -0.000000  -0.000000   0.000000
      9      -0.409804  -0.171751  -0.253569  -0.254226   0.264362  -0.264058
     10       0.282304   0.388360  -0.429874  -0.428777   0.421527  -0.421627
     11      -0.000000  -0.000000  -0.000000   0.000000   0.000000  -0.000000
     12      -0.409803   0.171752  -0.253574   0.254222  -0.264361  -0.264058
     13       0.282303  -0.388361  -0.429882   0.428769  -0.421526  -0.421628
     14       0.000000  -0.000000  -0.000000   0.000000   0.000000  -0.000000
     15      -0.409803   0.171751  -0.253573   0.254220   0.264364   0.264057
     16      -0.282303   0.388360   0.429882  -0.428766  -0.421530  -0.421627
     17       0.000000  -0.000000   0.000000   0.000000  -0.000000   0.000000


-----------
IR SPECTRUM
-----------

 Mode   freq       eps      Int      T**2         TX        TY        TZ
       cm**-1   L/(mol*cm) km/mol    a.u.
----------------------------------------------------------------------------
  6:    798.84   0.000158    0.80  0.000062  (-0.000000 -0.007858  0.000000)
  7:    928.85   0.020913  105.68  0.007026  ( 0.000000  0.000000  0.083821)
  8:    940.23   0.000000    0.00  0.000000  ( 0.000000  0.000000 -0.000002)
  9:   1030.32   0.000000    0.00  0.000000  (-0.000000  0.000000 -0.000000)
 10:   1185.12   0.000000    0.00  0.000000  (-0.000000  0.000000  0.000000)
 11:   1325.43   0.000000    0.00  0.000000  (-0.000000  0.000000 -0.000000)
 12:   1396.88   0.002769   13.99  0.000619  (-0.024870  0.000000  0.000000)
 13:   1658.07   0.000000    0.00  0.000000  ( 0.000000 -0.000000 -0.000000)
 14:   3049.02   0.001884    9.52  0.000193  ( 0.013887 -0.000000  0.000000)
 15:   3063.13   0.000000    0.00  0.000000  ( 0.000000 -0.000000  0.000000)
 16:   3128.55   0.000000    0.00  0.000000  (-0.000000 -0.000000 -0.000000)
 17:   3156.56   0.001838    9.29  0.000182  ( 0.000000  0.013480 -0.000000)

* The epsilon (eps) is given for a Dirac delta lineshape.
** The dipole moment derivative (T) already includes vibrational overlap.

The first frequency considered to be a vibration is 6
The total number of vibrations considered is 12


--------------------------
THERMOCHEMISTRY AT 298.15K
--------------------------

Temperature         ...   298.15 K
Pressure            ...     1.00 atm
Total Mass          ...    28.05 AMU
Quasi RRHO          ...     True
Cut-Off Frequency   ...     1.00 cm^-1

Throughout the following assumptions are being made:
  (1) The electronic state is orbitally nondegenerate
  (2) There are no thermally accessible electronically excited states
  (3) Hindered rotations indicated by low frequency modes are not
      treated as such but are treated as vibrations and this may
      cause some error
  (4) All equations used are the standard statistical mechanics
      equations for an ideal gas
  (5) All vibrations are strictly harmonic

freq.     798.84  E(vib)   ...       0.05 
freq.     928.85  E(vib)   ...       0.03 
freq.     940.23  E(vib)   ...       0.03 
freq.    1030.32  E(vib)   ...       0.02 
freq.    1185.12  E(vib)   ...       0.01 
freq.    1325.43  E(vib)   ...       0.01 
freq.    1396.88  E(vib)   ...       0.00 
freq.    1658.07  E(vib)   ...       0.00 
freq.    3049.02  E(vib)   ...       0.00 
freq.    3063.13  E(vib)   ...       0.00 
freq.    3128.55  E(vib)   ...       0.00 
freq.    3156.56  E(vib)   ...       0.00 

------------
INNER ENERGY
------------

The inner energy is: U= E(el) + E(ZPE) + E(vib) + E(rot) + E(trans)
    E(el)   - is the total energy from the electronic structure calculation
              = E(kin-el) + E(nuc-el) + E(el-el) + E(nuc-nuc)
    E(ZPE)  - the the zero temperature vibrational energy from the frequency calculation
    E(vib)  - the the finite temperature correction to E(ZPE) due to population
              of excited vibrational states
    E(rot)  - is the rotational thermal energy
    E(trans)- is the translational thermal energy

Summary of contributions to the inner energy U:
Electronic energy                ...    -77.85642813 Eh
Zero point energy                ...      0.04934739 Eh      30.97 kcal/mol
Thermal vibrational correction   ...      0.00024423 Eh       0.15 kcal/mol
Thermal rotational correction    ...      0.00141627 Eh       0.89 kcal/mol
Thermal translational correction ...      0.00141627 Eh       0.89 kcal/mol
-----------------------------------------------------------------------
Total thermal energy                    -77.80400397 Eh


Summary of corrections to the electronic energy:
(perhaps to be used in another calculation)
Total thermal correction                  0.00307677 Eh       1.93 kcal/mol
Non-thermal (ZPE) correction              0.04934739 Eh      30.97 kcal/mol
-----------------------------------------------------------------------
Total correction                          0.05242416 Eh      32.90 kcal/mol


--------
ENTHALPY
--------

The enthalpy is H = U + kB*T
                kB is Boltzmann's constant
Total thermal energy              ...    -77.80400397 Eh 
Thermal Enthalpy correction       ...      0.00094421 Eh       0.59 kcal/mol
-----------------------------------------------------------------------
Total Enthalpy                    ...    -77.80305976 Eh


Note: Rotational entropy computed according to Herzberg 
Infrared and Raman Spectra, Chapter V,1, Van Nostrand Reinhold, 1945 
Point Group:  D2h, Symmetry Number:   4  
Rotational constants in cm-1:     4.821050     1.011337     0.835971 

Vibrational entropy computed according to the QRRHO of S. Grimme
Chem.Eur.J. 2012 18 9955 using a reference frequency of 100.0 cm-1


-------
ENTROPY
-------

The entropy contributions are T*S = T*(S(el)+S(vib)+S(rot)+S(trans))
     S(el)   - electronic entropy
     S(vib)  - vibrational entropy
     S(rot)  - rotational entropy
     S(trans)- translational entropy
The entropies will be listed as multiplied by the temperature to get
units of energy

Electronic entropy                ...      0.00000000 Eh      0.00 kcal/mol
Vibrational entropy               ...      0.00029817 Eh      0.19 kcal/mol
Rotational entropy                ...      0.00753856 Eh      4.73 kcal/mol
Translational entropy             ...      0.01707111 Eh     10.71 kcal/mol
-----------------------------------------------------------------------
Final entropy term                ...      0.02490784 Eh     15.63 kcal/mol

In case the symmetry of your molecule has not been determined correctly
or in case you have a reason to use a different symmetry number we print 
out the resulting rotational entropy values for sn=1,12:

 non-linear molecules -----------------------------------
|  sn= 1 | S(rot)=       0.00884747 Eh      5.55 kcal/mol|
|  sn= 2 | S(rot)=       0.00819302 Eh      5.14 kcal/mol|
|  sn= 3 | S(rot)=       0.00781019 Eh      4.90 kcal/mol|
|  sn= 4 | S(rot)=       0.00753856 Eh      4.73 kcal/mol|
|  sn= 5 | S(rot)=       0.00732787 Eh      4.60 kcal/mol|
|  sn= 6 | S(rot)=       0.00715573 Eh      4.49 kcal/mol|
|  sn= 7 | S(rot)=       0.00701018 Eh      4.40 kcal/mol|
|  sn= 8 | S(rot)=       0.00688411 Eh      4.32 kcal/mol|
|  sn= 9 | S(rot)=       0.00677290 Eh      4.25 kcal/mol|
|  sn=10 | S(rot)=       0.00667342 Eh      4.19 kcal/mol|
|  sn=11 | S(rot)=       0.00658343 Eh      4.13 kcal/mol|
|  sn=12 | S(rot)=       0.00650127 Eh      4.08 kcal/mol|
 linear molecules ---------------------------------------
|  Dinfh | S(rot)=       0.00549497 Eh      3.45 kcal/mol|
|  Cinfv | S(rot)=       0.00614942 Eh      3.86 kcal/mol|
 --------------------------------------------------------


-------------------
GIBBS FREE ENERGY
-------------------

The Gibbs free energy is G = H - T*S

Total enthalpy                    ...    -77.80305976 Eh 
Total entropy correction          ...     -0.02490784 Eh    -15.63 kcal/mol
-----------------------------------------------------------------------
Final Gibbs free energy         ...    -77.82796760 Eh

For completeness - the Gibbs free energy minus the electronic energy
G-E(el)                           ...      0.02846053 Eh     17.86 kcal/mol



--------------------------------
SUGGESTED CITATIONS FOR THIS RUN
--------------------------------

Below you find a list of papers that are relevant to this ORCA run
We neither can nor want to force you to cite these papers, but we appreciate if you do
You receive ORCA, which is the product of decades of hard work by many enthusiastic individuals, for free
The only thing we kindly ask in return is that you cite our papers,
We deeply appreciate it, if you show your appreciation for ORCA by not just citing the generic ORCA reference.

Please note that relegating all ORCA citations to the supporting information does *not* help us.
SI sections are not indexed - citations you put there will not count into any citation statistics
But we need these citations in order to attract the funding resources that allow us to do what we are doing

Therefore, if you are a happy ORCA user, please consider citing a few of the papers listed below in the main body of your paper

In addition to the list printed below, the program has created the file C2H4_Freq-LDA.bibtex that contains the list in bibtex format
You can import this file easily into all common literature databanks and citation aid programs


List of essential papers. We consider these as the minimum necessary citations

  1. Neese,F.
     Software update: the ORCA program system, version 5.0
     WIRES Comput. Molec. Sci., 2022 12(1)e1606
     doi.org/10.1002/wcms.1606

List of papers to cite with high priority. The work reported in these papers was absolutely
necessary for this run to complete.
Our perspective: the developers of density functionals and basis sets usually get cited in chemistry papers
Good! But without the algorithms to do something with them, the functionals or basis sets would not do anything.
Hence, in our opinion, the algorithm design and method developments papers are equally worthy of getting cited

  1. Neese,F.
     An improvement of the resolution of the identity approximation for the formation of the Coulomb matrix
     J. Comp. Chem., 2003 24(14)1740-1747
     doi.org/10.1002/jcc.10318
  2. Bykov,D.; Petrenko,T.; Izsak,R.; Kossmann,S.; Becker,U.; Valeev,E.; Neese,F.
     Efficient implementation of the analytic second derivatives of Hartree-Fock and hybrid DFT energies: a detailed analysis of different approximations
     Molec. Phys., 2015 113 1961-1977
     doi.org/10.1080/00268976.2015.1025114
  3. Neese,F.
     The SHARK Integral Generation and Digestion System
     J. Comp. Chem., 2022  1-16
     doi.org/10.1002/jcc.26942

List of suggested additional citations. These are papers that are important in the 'surrounding' of 
of this run, or papers that preceded the highly important papers. If you like your results we are grateful for a citation.

  1. Neese,F.
     The ORCA program system
     WIRES Comput. Molec. Sci., 2012 2(1)73-78
     doi.org/10.1002/wcms.81
  2. Neese,F.
     Software update: the ORCA program system, version 4.0
     WIRES Comput. Molec. Sci., 2018 8(1)1-6
     doi.org/10.1002/wcms.1327
  3. Neese,F.; Wennmohs,F.; Becker,U.; Riplinger,C.
     The ORCA quantum chemistry program package
     J. Chem. Phys., 2020 152 Art. No. L224108
     doi.org/10.1063/5.0004608

List of optional additional citations

  1. Neese,F.
     Approximate second-order SCF convergence for spin unrestricted wavefunctions
     Chem. Phys. Lett., 2000 325(1-3)93-98
     doi.org/10.1016/s0009-2614(00)00662-x

Timings for individual modules:

Sum of individual times          ...       97.306 sec (=   1.622 min)
Startup calculation              ...        1.663 sec (=   0.028 min)   1.7 %
SCF iterations                   ...        9.756 sec (=   0.163 min)  10.0 %
Property calculations            ...        0.059 sec (=   0.001 min)   0.1 %
SCF Gradient evaluation          ...        4.304 sec (=   0.072 min)   4.4 %
Geometry relaxation              ...        0.074 sec (=   0.001 min)   0.1 %
Numerical frequency calculation  ...       81.450 sec (=   1.357 min)  83.7 %
                             ****ORCA TERMINATED NORMALLY****
TOTAL RUN TIME: 0 days 0 hours 1 minutes 36 seconds 454 msec
