
                                 *****************
                                 * O   R   C   A *
                                 *****************

                                            #,                                       
                                            ###                                      
                                            ####                                     
                                            #####                                    
                                            ######                                   
                                           ########,                                 
                                     ,,################,,,,,                         
                               ,,#################################,,                 
                          ,,##########################################,,             
                       ,#########################################, ''#####,          
                    ,#############################################,,   '####,        
                  ,##################################################,,,,####,       
                ,###########''''           ''''###############################       
              ,#####''   ,,,,##########,,,,          '''####'''          '####       
            ,##' ,,,,###########################,,,                        '##       
           ' ,,###''''                  '''############,,,                           
         ,,##''                                '''############,,,,        ,,,,,,###''
      ,#''                                            '''#######################'''  
     '                                                          ''''####''''         
             ,#######,   #######,   ,#######,      ##                                
            ,#'     '#,  ##    ##  ,#'     '#,    #''#        ,####,   ,####,        
            ##       ##  ##   ,#'  ##            #'  '#       #'       #'  '#        
            ##       ##  #######   ##           ,######,      #####,   #    #        
            '#,     ,#'  ##    ##  '#,     ,#' ,#      #,     #,   #   #,  ,#        
             '#######'   ##     ##  '#######'  #'      '#     '####' # '####'        



                #########################################################
                #                        -***-                          #
                #          Department of theory and spectroscopy        #
                #                                                       #
                #                      Frank Neese                      #
                #                                                       #
                #     Directorship, Architecture, Infrastructure        #
                #                    SHARK, DRIVERS                     #
                #        Core code/Algorithms in most modules           #
                #                                                       #
                #        Max Planck Institute fuer Kohlenforschung      #
                #                Kaiser Wilhelm Platz 1                 #
                #                 D-45470 Muelheim/Ruhr                 #
                #                      Germany                          #
                #                                                       #
                #                  All rights reserved                  #
                #                        -***-                          #
                #########################################################


                         Program Version 6.0.1  -  RELEASE   -


 With contributions from (in alphabetic order):
[Max-Planck-Institut fuer Kohlenforschung]                               
  Daniel Aravena         : Magnetic Suceptibility                        
  Michael Atanasov       : Ab Initio Ligand Field Theory (pilot matlab implementation)
  Alexander A. Auer      : GIAO ZORA, VPT2 properties, NMR spectrum      
  Ute Becker             : All parallelization in ORCA, NUMFREQ, NUMCALC 
  Giovanni Bistoni       : ED, misc. LED, open-shell LED, HFLD           
  Martin Brehm           : Molecular dynamics                            
  Dmytro Bykov           : pre 5.0 version of the SCF Hessian            
  Marcos Casanova-Páez   : Triplet and SCS-CIS(D). UHF-(DLPNO)-IP/EA/STEOM-CCSD. UHF-CVS-IP/STEOM-CCSD   
  Vijay G. Chilkuri      : MRCI spin determinant printing, contributions to CSF-ICE 
  Pauline Colinet        : FMM embedding                                 
  Dipayan Datta          : RHF DLPNO-CCSD density                        
  Achintya Kumar Dutta   : EOM-CC, STEOM-CC                              
  Nicolas Foglia         : Exact transition moments, OPA infrastructure, MCD improvements    
  Dmitry Ganyushin       : Spin-Orbit,Spin-Spin,Magnetic field MRCI      
  Miquel Garcia-Rates    : C-PCM and meta-GGA Hessian, CCSD/C-PCM, Gaussian charge scheme 
  Tiago L. C. Gouveia    : GS-ROHF, GS-ROCIS                             
  Yang Guo               : DLPNO-NEVPT2, F12-NEVPT2, CIM, IAO-localization        
  Andreas Hansen         : Spin unrestricted coupled pair/coupled cluster methods 
  Ingolf Harden          : AUTO-CI MPn and infrastructure                
  Benjamin Helmich-Paris : MC-RPA, TRAH-(SCF,CASSCF), AVAS, COSX integrals, SCF dyn. polar. 
  Lee Huntington         : MR-EOM, pCC                                   
  Robert Izsak           : Overlap fitted RIJCOSX, COSX-SCS-MP3, EOM     
  Riya Kayal             : Wick's Theorem for AUTO-CI, AUTO-CI UHF-CCSDT 
  Emily Kempfer          : AUTO-CI, RHF CISDT and CCSDT                  
  Christian Kollmar      : KDIIS, OOCD, Brueckner-CCSD(T), CCSD density, CASPT2, CASPT2-K, improved NEVPT2 
  Axel Koslowski         : Symmetry handling                             
  Simone Kossmann        : meta-GGA functionals, TD-DFT gradient, OOMP2, (MP2 Hessian; deprecated post 5.0) 
  Lucas Lang             : DCDCAS                                        
  Marvin Lechner         : AUTO-CI (C++ implementation), FIC-MRCC        
  Spencer Leger          : CASSCF response                               
  Dagmar Lenk            : GEPOL surface, SMD, ORCA-2-JSON               
  Dimitrios Liakos       : Extrapolation schemes; Compound Job, initial MDCI parallelization 
  Dimitrios Manganas     : Further ROCIS development; embedding schemes. LFT, Crystal Embedding 
  Dimitrios Pantazis     : SARC Basis sets                               
  Anastasios Papadopoulos: AUTO-CI, single reference methods and gradients 
  Taras Petrenko         : pre 6.0 DFT Hessian and TD-DFT gradient, (ASA, deprecated), ECA, 1-Electron XAS/XES, NRVS 
  Peter Pinski           : DLPNO-MP2, DLPNO-MP2 Gradient                 
  Christoph Reimann      : Effective Core Potentials                     
  Marius Retegan         : Local ZFS, SOC                                
  Christoph Riplinger    : Optimizer, TS searches, QM/MM, DLPNO-CCSD(T), (RO)-DLPNO pert. Triples 
  Michael Roemelt        : Original ROCIS implementation                 
  Masaaki Saitow         : Open-shell DLPNO-CCSD energy and density      
  Barbara Sandhoefer     : DKH picture change effects                    
  Kantharuban Sivalingam : CASSCF convergence/infrastructure, NEVPT2 and variants, FIC-MRCI 
  Bernardo de Souza      : ESD, SOC TD-DFT                               
  Georgi L. Stoychev     : AutoAux, RI-MP2 NMR, DLPNO-MP2 response, X2C  
  Van Anh Tran           : RI-MP2 g-tensors                              
  Willem Van den Heuvel  : Paramagnetic NMR                              
  Zikuan Wang            : NOTCH, Electric field optimization            
  Frank Wennmohs         : Technical directorship and infrastructure     
  Hang Xu                : AUTO-CI-Response properties                   
                                                                         
[FACCTs GmbH]                                                            
  Markus Bursch, Miquel Garcia-Rates, Christoph Riplinger, Bernardo de Souza, Georgi L. Stoychev 
                                                                 
  APM, Basis sets (HGBS, AHGBS, def-TZVP (Ac-Lr), def2-XVPD (La-Lu)), CI-OPT, improved COSX, DLPNO-Multilevel,           
  DOCKER, DRACO, updates on ESD, GOAT, IRC, LR-CPCM, MBIS, meta-GGA TD-DFT gradient, ML-optimized integration grids, 
  MM, NACMEs, nearIR, NEB, NEB-TS, NL-DFT gradient (VV10), 2- and 3-layer-ONIOM, interface openCOSMO-RS, QMMM,   
  Crystal-QMMM, SF, symmetry and pop. for TD-DFT, r2SCAN hybrids, SOLVATOR                                   
                                                                         
[Other institutions]                                                     
  V. Asgeirsson          : NEB                                           
  Christoph Bannwarth    : sTDA-DFT, sTD-DFT, PBEh-3c, B97-3c, D3        
  Sebastian Ehlert       : rSCAN, r2SCAN, r2SCAN-3c, D4, dhf basis sets  
  Marvin Friede          : D4 for Fr, Ra, Ac-Lr                          
  Lars Goerigk           : TD-DFT with DH, B97 family of functionals     
  Stefan Grimme          : VdW corrections, initial TS optimization, DFT functionals, gCP, sTDA/sTD-DF 
  Waldemar Hujo          : DFT-NL                                        
  H. Jonsson             : NEB                                           
  Holger Kruse           : gCP                                           
  Marcel Mueller         : wB97X-3c, vDZP basis set                      
  Hagen Neugebauer       : wr2SCAN                                       
  Tobias Risthaus        : range-separated hybrid DFT                    
  Lukas Wittmann         : regularized MP2, r2SCAN double-hybrids, wr2SCAN        
                                                                         
We gratefully acknowledge several colleagues who have allowed us to      
interface, adapt or use parts of their codes:                            
  Ed Valeev, F. Pavosevic, A. Kumar             : LibInt (2-el integral package), F12 methods 
  Garnet Chan, S. Sharma, J. Yang, R. Olivares  : DMRG                   
  Ulf Ekstrom                                   : XCFun DFT Library      
  Mihaly Kallay                                 : mrcc  (arbitrary order and MRCC methods)
  Frank Weinhold                                : gennbo (NPA and NBO analysis)           
  Simon Mueller                                 : openCOSMO-RS                            
  Christopher J. Cramer and Donald G. Truhlar   : smd solvation model                     
  S Lehtola, MJT Oliveira, MAL Marques          : LibXC Library                           
  Liviu Ungur et al                             : ANISO software                          


 Your calculation uses the libint2 library for the computation of 2-el integrals
 For citations please refer to: http://libint.valeyev.net

 Your ORCA version has been built with support for libXC version: 6.2.2
 For citations please refer to: https://libxc.gitlab.io

 This ORCA versions uses:
   CBLAS   interface :  Fast vector & matrix operations
   LAPACKE interface :  Fast linear algebra routines
   Shared memory     :  Shared parallel matrices


NOTE: MaxCore=4000 MB was set to SCF,MP2,MDCI,CIPSI,MRCI and CIS
      => If you want to overwrite this, your respective input block should be placed after the MaxCore statement
Warning: RI is on but no J-basis has been assigned. Assigning Def2/J (nothing to worry about!)
================================================================================

----- Orbital basis set information -----
Your calculation utilizes the basis: def2-TZVPP
   F. Weigend and R. Ahlrichs, Phys. Chem. Chem. Phys. 7, 3297 (2005).

----- AuxJ basis set information -----
Your calculation utilizes the auxiliary basis: def2/J
   F. Weigend, Phys. Chem. Chem. Phys. 8, 1057 (2006).

================================================================================
                                        WARNINGS
                       Please study these warnings very carefully!
================================================================================


WARNING: Analytical and numerical frequencies both set to true
  ===> : Disabling Anfreq

WARNING: Geometry Optimization
  ===> : Switching off AutoStart
         For restart on a previous wavefunction, please use MOREAD

================================================================================
                                       INPUT FILE
================================================================================
NAME = NH3_Freq-HFS.inp
|  1> ! HFS def2-TZVPP Opt TightOpt VeryTightSCF
|  2> 
|  3> ! Freq
|  4> ! NumFreq
|  5> 
|  6> %scf
|  7>    MaxIter 400          # Máximo de iteraciones permitidas para el SCF
|  8> end
|  9> 
| 10> %geom
| 11>    TolRMSD 1.0e-5
| 12>    TolMAXD 1.0e-4
| 13>    TolRMSG 1.0e-5
| 14>    TolMAXG 1.0e-4
| 15> end
| 16> 
| 17> %pal
| 18>    nprocs 1
| 19> end
| 20> 
| 21> 
| 22> %MaxCore 4000            # Memoria máxima por núcleo (en MB)
| 23> 
| 24> * xyz 0 1
| 25> N       0.00000000    0.00000000    0.11361500
| 26> H       0.00000000    0.93799100   -0.26510100
| 27> H      -0.81232400   -0.46899600   -0.26510100
| 28> H       0.81232400   -0.46899600   -0.26510100
| 29> **                         ****END OF INPUT****
================================================================================

                       *****************************
                       * Geometry Optimization Run *
                       *****************************

Geometry optimization settings:
Update method            Update   .... BFGS
Choice of coordinates    CoordSys .... (2022) Redundant Internals
Initial Hessian          InHess   .... Almloef's Model
Max. no of cycles        MaxIter  .... 50

Convergence Tolerances:
Energy Change            TolE     ....  1.0000e-06 Eh
Max. Gradient            TolMAXG  ....  1.0000e-04 Eh/bohr
RMS Gradient             TolRMSG  ....  1.0000e-05 Eh/bohr
Max. Displacement        TolMAXD  ....  1.0000e-04 bohr
RMS Displacement         TolRMSD  ....  1.0000e-05 bohr
Strict Convergence                .... False

------------------------------------------------------------------------------
                        ORCA OPTIMIZATION COORDINATE SETUP
------------------------------------------------------------------------------

The optimization will be done in redundant internal coordinates (2022)
Making redundant internal coordinates   ...  (2022 redundants) done
Evaluating the initial hessian          ...  (Almloef) done
Evaluating the coordinates              ...  done
Calculating the B-matrix                .... done
Calculating the G-matrix                .... done
Diagonalizing the G-matrix              .... done
The first mode is                       ....    1
The number of degrees of freedom        ....    6

    -----------------------------------------------------------------
                    Redundant Internal Coordinates


    -----------------------------------------------------------------
         Definition                    Initial Value    Approx d2E/dq
    -----------------------------------------------------------------
      1. B(H   1,N   0)                  1.0116         0.430236   
      2. B(H   2,N   0)                  1.0116         0.430236   
      3. B(H   3,N   0)                  1.0116         0.430236   
      4. A(H   1,N   0,H   3)          106.8430         0.302702   
      5. A(H   2,N   0,H   3)          106.8430         0.302702   
      6. A(H   1,N   0,H   2)          106.8430         0.302702   
      7. I(H   1,H   3,H   2,N   0)     60.9075         0.003864   
    -----------------------------------------------------------------

Number of atoms                         .... 4
Number of degrees of freedom            .... 7


         *************************************************************
         *                GEOMETRY OPTIMIZATION CYCLE   1            *
         *************************************************************
---------------------------------
CARTESIAN COORDINATES (ANGSTROEM)
---------------------------------
  N      0.000000    0.000000    0.113615
  H      0.000000    0.937991   -0.265101
  H     -0.812324   -0.468996   -0.265101
  H      0.812324   -0.468996   -0.265101

----------------------------
CARTESIAN COORDINATES (A.U.)
----------------------------
  NO LB      ZA    FRAG     MASS         X           Y           Z
   0 N     7.0000    0    14.007    0.000000    0.000000    0.214701
   1 H     1.0000    0     1.008    0.000000    1.772546   -0.500968
   2 H     1.0000    0     1.008   -1.535070   -0.886274   -0.500968
   3 H     1.0000    0     1.008    1.535070   -0.886274   -0.500968

--------------------------------
INTERNAL COORDINATES (ANGSTROEM)
--------------------------------
 N      0   0   0     0.000000000000     0.00000000     0.00000000
 H      1   0   0     1.011559649619     0.00000000     0.00000000
 H      1   2   0     1.011559853715   106.84302597     0.00000000
 H      1   2   3     1.011559853715   106.84302597   114.07643751

---------------------------
INTERNAL COORDINATES (A.U.)
---------------------------
 N      0   0   0     0.000000000000     0.00000000     0.00000000
 H      1   0   0     1.911570705905     0.00000000     0.00000000
 H      1   2   0     1.911571091591   106.84302597     0.00000000
 H      1   2   3     1.911571091591   106.84302597   114.07643751

---------------------
BASIS SET INFORMATION
---------------------
There are 2 groups of distinct atoms

 Group   1 Type N   : 11s6p2d1f contracted to 5s3p2d1f pattern {62111/411/11/1}
 Group   2 Type H   : 5s2p1d contracted to 3s2p1d pattern {311/11/1}

Atom   0N    basis set group =>   1
Atom   1H    basis set group =>   2
Atom   2H    basis set group =>   2
Atom   3H    basis set group =>   2
---------------------------------
AUXILIARY/J BASIS SET INFORMATION
---------------------------------
There are 2 groups of distinct atoms

 Group   1 Type N   : 12s5p4d2f1g contracted to 6s4p3d1f1g pattern {711111/2111/211/2/1}
 Group   2 Type H   : 5s2p1d contracted to 3s1p1d pattern {311/2/1}

Atom   0N    basis set group =>   1
Atom   1H    basis set group =>   2
Atom   2H    basis set group =>   2
Atom   3H    basis set group =>   2
------------------------------------------------------------------------------
                             ORCA STARTUP CALCULATIONS
                           -- RI-GTO INTEGRALS CHOSEN --
------------------------------------------------------------------------------
------------------------------------------------------------------------------
                   ___                                                        
                  /   \      - P O W E R E D   B Y -                         
                 /     \                                                     
                 |  |  |   _    _      __       _____    __    __             
                 |  |  |  | |  | |    /  \     |  _  \  |  |  /  |          
                  \  \/   | |  | |   /    \    | | | |  |  | /  /          
                 / \  \   | |__| |  /  /\  \   | |_| |  |  |/  /          
                |  |  |   |  __  | /  /__\  \  |    /   |      \           
                |  |  |   | |  | | |   __   |  |    \   |  |\   \          
                \     /   | |  | | |  |  |  |  | |\  \  |  | \   \       
                 \___/    |_|  |_| |__|  |__|  |_| \__\ |__|  \__/        
                                                                              
                      - O R C A' S   B I G   F R I E N D -                    
                                      &                                       
                       - I N T E G R A L  F E E D E R -                       
                                                                              
 v1 FN, 2020, v2 2021, v3 2022-2024                                           
------------------------------------------------------------------------------


----------------------
SHARK INTEGRAL PACKAGE
----------------------

Number of atoms                             ...      4
Number of basis functions                   ...     73
Number of shells                            ...     29
Maximum angular momentum                    ...      3
Integral batch strategy                     ... SHARK/LIBINT Hybrid
RI-J (if used) integral strategy            ... SPLIT-RIJ (Revised 2003 algorithm where possible)
Printlevel                                  ...      1
Contraction scheme used                     ... SEGMENTED contraction
Prescreening option                         ... SCHWARTZ
   Thresh                                   ... 1.000e-12
   Tcut                                     ... 1.000e-14
   Tpresel                                  ... 1.000e-14 
Coulomb Range Separation                    ... NOT USED
Exchange Range Separation                   ... NOT USED
Multipole approximations                    ... NOT USED
Finite Nucleus Model                        ... NOT USED
CABS basis                                  ... NOT available
Auxiliary Coulomb fitting basis             ... AVAILABLE
   # of basis functions in Aux-J            ...     82
   # of shells in Aux-J                     ...     30
   Maximum angular momentum in Aux-J        ...      4
Auxiliary J/K fitting basis                 ... NOT available
Auxiliary Correlation fitting basis         ... NOT available
Auxiliary 'external' fitting basis          ... NOT available

Checking pre-screening integrals            ... done (  0.0 sec) Dimension = 29
Check shell pair data                       ... done (  0.0 sec)
Shell pair information
Shell pair cut-off parameter TPreSel        ...   1.0e-14
Total number of shell pairs                 ...       435
Shell pairs after pre-screening             ...       435
Total number of primitive shell pairs       ...      1021
Primitive shell pairs kept                  ...       991
          la=0 lb=0:    105 shell pairs
          la=1 lb=0:    126 shell pairs
          la=1 lb=1:     45 shell pairs
          la=2 lb=0:     70 shell pairs
          la=2 lb=1:     45 shell pairs
          la=2 lb=2:     15 shell pairs
          la=3 lb=0:     14 shell pairs
          la=3 lb=1:      9 shell pairs
          la=3 lb=2:      5 shell pairs
          la=3 lb=3:      1 shell pairs

Calculating one electron integrals          ... done (  0.0 sec)
Calculating RI/J V-Matrix + Cholesky decomp.... done (  0.0 sec)
Calculating Nuclear repulsion               ... done (  0.0 sec) ENN=     11.962882715546 Eh

Diagonalization of the overlap matrix:
Smallest eigenvalue                        ... 8.866e-04
Time for diagonalization                   ...    0.000 sec
Threshold for overlap eigenvalues          ... 1.000e-07
Number of eigenvalues below threshold      ... 0
Time for construction of square roots      ...    0.001 sec
Total time needed                          ...    0.007 sec

-------------------
DFT GRID GENERATION
-------------------

General Integration Accuracy     IntAcc      ... 4.388
Radial Grid Type                 RadialGrid  ... OptM3 with GC (2021)
Angular Grid (max. ang.)         AngularGrid ... 4 (Lebedev-302)
Angular grid pruning method      GridPruning ... 4 (adaptive)
Weight generation scheme         WeightScheme... mBecke (2022)
Basis function cutoff            BFCut       ... 1.0000e-12
Integration weight cutoff        WCut        ... 1.0000e-14
Partially contracted basis set               ... off
Rotationally invariant grid construction     ... off
Angular grids for H and He will be reduced by one unit

Total number of grid points                  ...    16020
Total number of batches                      ...      252
Average number of points per batch           ...       63
Average number of grid points per atom       ...     4005
Initializing property integral containers    ... done (  0.0 sec)

SHARK setup successfully completed in   0.1 seconds

Maximum memory used throughout the entire STARTUP-calculation: 13.7 MB
-------------------------------------------------------------------------------
                                 ORCA GUESS
                   Start orbitals & Density for SCF / CASSCF
-------------------------------------------------------------------------------

------------
SCF SETTINGS
------------
Hamiltonian:
 Density Functional     Method          .... DFT(GTOs)
 Exchange Functional    Exchange        .... Slater
   X-Alpha parameter    XAlpha          ....  0.666667
 Correlation Functional Correlation     .... No Correlation
 Gradients option       PostSCFGGA      .... off
 RI-approximation to the Coulomb term is turned on
   Number of AuxJ basis functions       .... 82


General Settings:
 Integral files         IntName         .... NH3_Freq-HFS
 Hartree-Fock type      HFTyp           .... RHF
 Total Charge           Charge          ....    0
 Multiplicity           Mult            ....    1
 Number of Electrons    NEL             ....   10
 Basis Dimension        Dim             ....   73
 Nuclear Repulsion      ENuc            ....     11.9628827155 Eh

Convergence Acceleration:
 AO-DIIS                CNVDIIS         .... on
   Start iteration      DIISMaxIt       ....    12
   Startup error        DIISStart       ....  0.200000
   # of expansion vecs  DIISMaxEq       ....     5
   Bias factor          DIISBfac        ....   1.050
   Max. coefficient     DIISMaxC        ....  10.000
 MO-DIIS                CNVKDIIS        .... off
 Trust-Rad. Augm. Hess. CNVTRAH         .... auto
   Auto Start mean grad. ratio tolernc. ....  1.125000
   Auto Start start iteration           ....    50
   Auto Start num. interpolation iter.  ....    10
   Max. Number of Micro iterations      ....    24
   Max. Number of Macro iterations      .... Maxiter - #DIIS iter
   Number of Davidson start vectors     ....     2
   Converg. threshold    (grad. norm)   ....   2.000e-06
   Grad. Scal. Fac. for Micro threshold ....   0.100
   Minimum threshold for Micro iter.    ....   1.000e-02
   NR start threshold (gradient norm)   ....   1.000e-04
   Initial trust radius                 ....   0.400
   Minimum AH scaling param. (alpha)    ....   1.000
   Maximum AH scaling param. (alpha)    .... 1000.000
   Quad. conv. algorithm                .... NR
   White noise on init. David. guess    .... on
   Maximum white noise                  ....   0.010
   Pseudo random numbers                .... off
   Inactive MOs                         .... canonical
   Orbital update algorithm             .... Taylor
   Preconditioner                       .... Diag
   Full preconditioner red. dimension   ....   250
 SOSCF                  CNVSOSCF        .... on
   Start iteration      SOSCFMaxIt      ....   150
   Startup grad/error   SOSCFStart      ....  0.003300
   Hessian update       SOSCFHessUp     .... L-BFGS
 Level Shifting         CNVShift        .... on
   Level shift para.    LevelShift      ....    0.2500
   Turn off err/grad.   ShiftErr        ....    0.0010
 Zerner damping         CNVZerner       .... off
 Static damping         CNVDamp         .... on
   Fraction old density DampFac         ....    0.7000
   Max. Damping (<1)    DampMax         ....    0.9800
   Min. Damping (>=0)   DampMin         ....    0.0000
   Turn off err/grad.   DampErr         ....    0.1000

SCF Procedure:
 Maximum # iterations   MaxIter         ....   400
 SCF integral mode      SCFMode         .... Direct
   Integral package                     .... SHARK and LIBINT hybrid scheme
 Reset frequency        DirectResetFreq ....    20
 Integral Threshold     Thresh          ....  1.000e-12 Eh
 Primitive CutOff       TCut            ....  1.000e-14 Eh

Convergence Tolerance:
 Convergence Check Mode ConvCheckMode   .... Total+1el-Energy
 Convergence forced     ConvForced      .... 0
 Energy Change          TolE            ....  1.000e-09 Eh
 1-El. energy change                    ....  1.000e-06 Eh
 Orbital Gradient       TolG            ....  2.000e-06
 Orbital Rotation angle TolX            ....  2.000e-06
 DIIS Error             TolErr          ....  1.000e-08

------------------------------
INITIAL GUESS: MODEL POTENTIAL
------------------------------
Loading Hartree-Fock densities                     ... done
Calculating cut-offs                               ... done
Initializing the effective Hamiltonian             ... done
Setting up the integral package (SHARK)            ... done
Starting the Coulomb interaction                   ... done (   0.0 sec)
Making the grid                                    ... done (   0.0 sec)
Mapping shells                                     ... done
Starting the XC term evaluation                    ... done (   0.0 sec)
  promolecular density results
     # of electrons  =      9.997943079
     EX              =     -6.701143225
     EC              =      0.000000000
     EX+EC           =     -6.701143225
Transforming the Hamiltonian                       ... done (   0.0 sec)
Diagonalizing the Hamiltonian                      ... done (   0.0 sec)
Back transforming the eigenvectors                 ... done (   0.0 sec)
Now organizing SCF variables                       ... done
                      ------------------
                      INITIAL GUESS DONE (   0.1 sec)
                      ------------------
             **** ENERGY FILE WAS UPDATED (NH3_Freq-HFS.en.tmp) ****
Finished Guess after   0.1 sec
Maximum memory used throughout the entire GUESS-calculation: 7.6 MB

-------------------------------------------------------------------------------------------
                                      ORCA LEAN-SCF
                              memory conserving SCF solver
-------------------------------------------------------------------------------------------

----------------------------------------D-I-I-S--------------------------------------------
Iteration    Energy (Eh)           Delta-E    RMSDP     MaxDP     DIISErr   Damp  Time(sec)
-------------------------------------------------------------------------------------------
               ***  Starting incremental Fock matrix formation  ***
    1    -48.2191381621812596     0.00e+00  2.11e-02  3.43e-01  1.43e+00  0.700   0.1
Warning: op=0 Small HOMO/LUMO gap (   0.004) - skipping pre-diagonalization
         Will do a full diagonalization
    2    -48.5760911743982220    -3.57e-01  1.10e-02  2.76e-01  9.12e-01  0.700   0.1
    3    -48.6523455432299201    -7.63e-02  3.36e-03  5.43e-02  5.89e-01  0.700   0.1
    4    -48.7124159463877149    -6.01e-02  3.87e-03  7.16e-02  3.89e-01  0.700   0.1
    5    -48.7600603203135066    -4.76e-02  3.48e-03  7.39e-02  2.61e-01  0.700   0.1
                               ***Turning on AO-DIIS***
    6    -48.7918197923401564    -3.18e-02  2.68e-03  7.16e-02  1.74e-01  0.700   0.1
    7    -48.8137279342522845    -2.19e-02  2.02e-03  5.98e-02  1.22e-01  0.700   0.1
    8    -48.8292114852300259    -1.55e-02  1.50e-03  4.73e-02  8.33e-02  0.700   0.1
    9    -48.8400254291098079    -1.08e-02  3.68e-03  1.18e-01  5.76e-02  0.000   0.1
   10    -48.8650733484639517    -2.50e-02  1.95e-04  4.18e-03  5.18e-03  0.000   0.1
                              *** Initializing SOSCF ***
---------------------------------------S-O-S-C-F--------------------------------------
Iteration    Energy (Eh)           Delta-E    RMSDP     MaxDP     MaxGrad    Time(sec)
--------------------------------------------------------------------------------------
   11    -48.8650984708299418    -2.51e-05  9.12e-05  2.33e-03  5.02e-04     0.1
               *** Restarting incremental Fock matrix formation ***
   12    -48.8650991362116969    -6.65e-07  1.76e-04  4.68e-03  1.45e-04     0.0
   13    -48.8650990986956089     3.75e-08  1.06e-04  2.95e-03  3.22e-04     0.0
   14    -48.8650995002453215    -4.02e-07  8.00e-05  2.11e-03  6.07e-05     0.0
   15    -48.8650995584954160    -5.83e-08  1.36e-05  3.16e-04  2.63e-05     0.1
   16    -48.8650995677200868    -9.22e-09  2.55e-06  7.41e-05  5.32e-06     0.0
   17    -48.8650995679055029    -1.85e-10  6.34e-07  1.78e-05  6.83e-07     0.0
                 **** Energy Check signals convergence ****

               *****************************************************
               *                     SUCCESS                       *
               *           SCF CONVERGED AFTER  17 CYCLES          *
               *****************************************************

             **** ENERGY FILE WAS UPDATED (NH3_Freq-HFS.en.tmp) ****

----------------
TOTAL SCF ENERGY
----------------

Total Energy       :        -48.86509956790550 Eh           -1329.68696 eV

Components:
Nuclear Repulsion  :         11.96288271554579 Eh             325.52659 eV
Electronic Energy  :        -60.82798228345129 Eh           -1655.21355 eV
One Electron Energy:        -96.29811555852572 Eh           -2620.40494 eV
Two Electron Energy:         35.47013327507443 Eh             965.19140 eV

Virial components:
Potential Energy   :        -99.28941752478923 Eh           -2701.80241 eV
Kinetic Energy     :         50.42431795688373 Eh            1372.11545 eV
Virial Ratio       :          1.96907804701867

DFT components:
N(Alpha)           :        0.000000000000 electrons
N(Beta)            :        0.000000000000 electrons
N(Total)           :        0.000000000000 electrons
E(X)               :        0.000000000000 Eh       
E(C)               :        0.000000000000 Eh       
E(XC)              :        0.000000000000 Eh       

---------------
SCF CONVERGENCE
---------------

  Last Energy change         ...    1.8542e-10  Tolerance :   1.0000e-09
  Last MAX-Density change    ...    1.7845e-05  Tolerance :   1.0000e-08
  Last RMS-Density change    ...    6.3437e-07  Tolerance :   1.0000e-09
  Last DIIS Error            ...    5.0244e-04  Tolerance :   1.0000e-08
  Last Orbital Gradient      ...    6.8336e-07  Tolerance :   2.0000e-06
  Last Orbital Rotation      ...    3.6491e-06  Tolerance :   2.0000e-06


----------------
ORBITAL ENERGIES
----------------

  NO   OCC          E(Eh)            E(eV) 
   0   2.0000     -12.140785      -330.3675 
   1   2.0000      -0.415967       -11.3190 
   2   2.0000      -0.095631        -2.6022 
   3   2.0000      -0.095631        -2.6022 
   4   2.0000       0.069089         1.8800 
   5   0.0000       0.145348         3.9551 
   6   0.0000       0.233233         6.3466 
   7   0.0000       0.233233         6.3466 
   8   0.0000       0.459691        12.5088 
   9   0.0000       0.459691        12.5088 
  10   0.0000       0.511733        13.9250 
  11   0.0000       0.612281        16.6610 
  12   0.0000       0.675905        18.3923 
  13   0.0000       0.680932        18.5291 
  14   0.0000       0.680932        18.5291 
  15   0.0000       0.759077        20.6555 
*Only the first 10 virtual orbitals were printed.

                    ********************************
                    * MULLIKEN POPULATION ANALYSIS *
                    ********************************

-----------------------
MULLIKEN ATOMIC CHARGES
-----------------------
   0 N :   -0.337073
   1 H :    0.112358
   2 H :    0.112358
   3 H :    0.112358
Sum of atomic charges:    0.0000000

--------------------------------
MULLIKEN REDUCED ORBITAL CHARGES
--------------------------------
  0 N s       :     3.347648  s :     3.347648
      pz      :     1.869753  p :     3.969614
      px      :     1.049931
      py      :     1.049931
      dz2     :     0.001602  d :     0.019477
      dxz     :     0.007186
      dyz     :     0.007186
      dx2y2   :     0.001752
      dxy     :     0.001752
      f0      :     0.000290  f :     0.000333
      f+1     :     0.000066
      f-1     :     0.000066
      f+2     :    -0.000016
      f-2     :    -0.000016
      f+3     :     0.000000
      f-3     :    -0.000056

  1 H s       :     0.826183  s :     0.826183
      pz      :     0.032541  p :     0.058790
      px      :     0.015737
      py      :     0.010511
      dz2     :     0.000265  d :     0.002669
      dxz     :     0.000105
      dyz     :     0.001858
      dx2y2   :    -0.000251
      dxy     :     0.000692

  2 H s       :     0.826183  s :     0.826183
      pz      :     0.032541  p :     0.058790
      px      :     0.011818
      py      :     0.014431
      dz2     :     0.000265  d :     0.002669
      dxz     :     0.001420
      dyz     :     0.000543
      dx2y2   :     0.000456
      dxy     :    -0.000015

  3 H s       :     0.826183  s :     0.826183
      pz      :     0.032541  p :     0.058790
      px      :     0.011818
      py      :     0.014431
      dz2     :     0.000265  d :     0.002669
      dxz     :     0.001420
      dyz     :     0.000543
      dx2y2   :     0.000456
      dxy     :    -0.000015



                     *******************************
                     * LOEWDIN POPULATION ANALYSIS *
                     *******************************

----------------------
LOEWDIN ATOMIC CHARGES
----------------------
   0 N :    0.308909
   1 H :   -0.102970
   2 H :   -0.102970
   3 H :   -0.102970

-------------------------------
LOEWDIN REDUCED ORBITAL CHARGES
-------------------------------
  0 N s       :     2.901667  s :     2.901667
      pz      :     1.515937  p :     3.727534
      px      :     1.105799
      py      :     1.105799
      dz2     :     0.003464  d :     0.057249
      dxz     :     0.010132
      dyz     :     0.010132
      dx2y2   :     0.016761
      dxy     :     0.016761
      f0      :     0.000271  f :     0.004641
      f+1     :     0.000000
      f-1     :     0.000000
      f+2     :     0.001551
      f-2     :     0.001551
      f+3     :     0.000000
      f-3     :     0.001268

  1 H s       :     0.796964  s :     0.796964
      pz      :     0.117343  p :     0.260841
      px      :     0.060652
      py      :     0.082846
      dz2     :     0.006617  d :     0.045165
      dxz     :     0.001309
      dyz     :     0.014999
      dx2y2   :     0.009330
      dxy     :     0.012909

  2 H s       :     0.796964  s :     0.796964
      pz      :     0.117343  p :     0.260841
      px      :     0.077298
      py      :     0.066200
      dz2     :     0.006617  d :     0.045165
      dxz     :     0.011577
      dyz     :     0.004732
      dx2y2   :     0.012014
      dxy     :     0.010225

  3 H s       :     0.796964  s :     0.796964
      pz      :     0.117343  p :     0.260841
      px      :     0.077298
      py      :     0.066200
      dz2     :     0.006617  d :     0.045165
      dxz     :     0.011577
      dyz     :     0.004732
      dx2y2   :     0.012014
      dxy     :     0.010225



                      *****************************
                      * MAYER POPULATION ANALYSIS *
                      *****************************

  NA   - Mulliken gross atomic population
  ZA   - Total nuclear charge
  QA   - Mulliken gross atomic charge
  VA   - Mayer's total valence
  BVA  - Mayer's bonded valence
  FA   - Mayer's free valence

  ATOM       NA         ZA         QA         VA         BVA        FA
  0 N      7.3371     7.0000    -0.3371     3.0293     3.0293     0.0000
  1 H      0.8876     1.0000     0.1124     0.9943     0.9943     0.0000
  2 H      0.8876     1.0000     0.1124     0.9943     0.9943     0.0000
  3 H      0.8876     1.0000     0.1124     0.9943     0.9943    -0.0000

  Mayer bond orders larger than 0.100000
B(  0-N ,  1-H ) :   1.0098 B(  0-N ,  2-H ) :   1.0098 B(  0-N ,  3-H ) :   1.0098 


-------
TIMINGS
-------

Total SCF time: 0 days 0 hours 0 min 1 sec 

Total time                  ....       1.376 sec
Sum of individual times     ....       1.377 sec  (100.1%)

SCF preparation             ....       0.040 sec  (  2.9%)
Fock matrix formation       ....       0.285 sec  ( 20.7%)
  Startup                   ....       0.021 sec  (  7.4% of F)
  Split-RI-J                ....       0.160 sec  ( 56.1% of F)
Diagonalization             ....       0.000 sec  (  0.0%)
Density matrix formation    ....       0.329 sec  ( 23.9%)
Total Energy calculation    ....       0.160 sec  ( 11.6%)
Population analysis         ....       0.029 sec  (  2.1%)
Orbital Transformation      ....       0.047 sec  (  3.4%)
Orbital Orthonormalization  ....       0.000 sec  (  0.0%)
DIIS solution               ....       0.386 sec  ( 28.1%)
SOSCF solution              ....       0.101 sec  (  7.3%)
Finished LeanSCF after   1.4 sec

Maximum memory used throughout the entire LEANSCF-calculation: 5.4 MB

-------------------------   --------------------
FINAL SINGLE POINT ENERGY       -48.865099567906
-------------------------   --------------------

------------------------------------------------------------------------------
                         ORCA SCF GRADIENT CALCULATION
------------------------------------------------------------------------------

Nuc. rep. gradient        (SHARK) ... done (  0.0 sec)
HCore & Overlap gradient  (SHARK) ... done (  0.0 sec)
Split-RIJ-J gradient      (SHARK) ... done (  0.1 sec)

------------------
CARTESIAN GRADIENT
------------------

   1   N   :    0.000000000    0.000000125   -0.239663246
   2   H   :   -0.000000000   -0.210258965    0.079887842
   3   H   :    0.182089406    0.105129420    0.079887702
   4   H   :   -0.182089406    0.105129420    0.079887702

Difference to translation invariance:
           :    0.0000000000    0.0000000000    0.0000000000

Difference to rotation invariance:
           :    0.0000000081   -0.0000000000    0.0000000001

Norm of the Cartesian gradient     ...    0.4573958400
RMS gradient                       ...    0.1320388057
MAX gradient                       ...    0.2396632457

-------
TIMINGS
-------

Total SCF gradient time     ....        0.067 sec

One electron gradient       ....       0.008 sec  ( 11.9%)
RI-J Coulomb gradient       ....       0.059 sec  ( 88.1%)

Maximum memory used throughout the entire SCFGRAD-calculation: 7.7 MB
------------------------------------------------------------------------------
                         ORCA GEOMETRY RELAXATION STEP
------------------------------------------------------------------------------

Reading the OPT-File                    .... done
Getting information on internals        .... done
Copying old internal coords+grads       .... done
Making the new internal coordinates     .... (2022 redundants) done
Validating the new internal coordinates .... (2022 redundants) done
Calculating the B-matrix                .... done
Calculating the G,G- and P matrices     .... done
Transforming gradient to internals      .... done
Projecting the internal gradient        .... done
Number of atoms                         ....   4
Number of internal coordinates          ....   7
Current Energy                          ....   -48.865099568 Eh
Current gradient norm                   ....     0.457395840 Eh/bohr
Maximum allowed component of the step   ....  0.300
Current trust radius                    ....  0.300
Evaluating the initial hessian          ....  (Almloef) done
Projecting the Hessian                  .... done
Forming the augmented Hessian           .... done
Diagonalizing the augmented Hessian     .... done
Last element of RFO vector              ....  0.861095860
Lowest eigenvalues of augmented Hessian:
 -0.230002910  0.109582452  0.302702146  0.302716527  0.430235541
Length of the computed step             ....  0.590459977
Warning: the length of the step is outside the trust region - taking restricted step instead
The input lambda is                     ....     0.108475
   iter:   5  x=    0.098596  g=  630.318697 f(x)=     3.156928
   iter:  10  x=   -0.688436  g=    0.444721 f(x)=     0.105751
   iter:  15  x=   -0.868675  g=    0.138613 f(x)=     0.000000
The output lambda is                    ....    -0.868675 (16 iterations)
The final length of the internal step   ....  0.300000000
Converting the step to Cartesian space:
 Initial RMS(Int)=    0.1133893419
Transforming coordinates:
 Iter   0:  RMS(Cart)=    0.0827212153 RMS(Int)=    0.1133870983
done
Storing new coordinates                 .... done

                                .--------------------.
          ----------------------|Geometry convergence|-------------------------
          Item                value                   Tolerance       Converged
          ---------------------------------------------------------------------
          RMS gradient        0.1472569395            0.0000100000      NO
          MAX gradient        0.2248763289            0.0001000000      NO
          RMS step            0.1133893419            0.0000100000      NO
          MAX step            0.1731268526            0.0001000000      NO
          ........................................................
          Max(Bonds)      0.0916      Max(Angles)    0.29
          Max(Dihed)        0.00      Max(Improp)    0.37
          ---------------------------------------------------------------------

The optimization has not yet converged - more geometry cycles are needed


    ---------------------------------------------------------------------------
                         Redundant Internal Coordinates
                            (Angstroem and degrees)

        Definition                    Value    dE/dq     Step     New-Value
    ----------------------------------------------------------------------------
     1. B(H   1,N   0)                1.0116 -0.224876  0.0916    1.1032   
     2. B(H   2,N   0)                1.0116 -0.224876  0.0916    1.1032   
     3. B(H   3,N   0)                1.0116 -0.224876  0.0916    1.1032   
     4. A(H   1,N   0,H   3)          106.84 -0.002293    0.14    106.99   
     5. A(H   2,N   0,H   3)          106.84 -0.005762    0.29    107.14   
     6. A(H   1,N   0,H   2)          106.84 -0.002293    0.14    106.99   
     7. I(H   1,H   3,H   2,N   0)     60.91  0.006375   -0.37     60.53   
    ----------------------------------------------------------------------------

Geometry step timings:
Preparation and reading OPT file:      0.000 s ( 0.000 %)
Internal coordinates            :      0.000 s ( 0.000 %)
B/P matrices and projection     :      0.000 s ( 0.000 %)
Hessian update/contruction      :      0.001 s (50.000 %)
Making the step                 :      0.001 s (50.000 %)
Converting the step to Cartesian:      0.000 s ( 0.000 %)
Storing new data                :      0.000 s ( 0.000 %)
Checking convergence            :      0.000 s ( 0.000 %)
Final printing                  :      0.000 s ( 0.000 %)
Total time                      :      0.002 s

Time for energy+gradient        :      1.822 s
Time for complete geometry iter :      1.871 s

         *************************************************************
         *                GEOMETRY OPTIMIZATION CYCLE   2            *
         *************************************************************
---------------------------------
CARTESIAN COORDINATES (ANGSTROEM)
---------------------------------
  N      0.000000   -0.000464    0.136956
  H     -0.000000    1.023706   -0.273006
  H     -0.887579   -0.511621   -0.272819
  H      0.887579   -0.511621   -0.272819

----------------------------
CARTESIAN COORDINATES (A.U.)
----------------------------
  NO LB      ZA    FRAG     MASS         X           Y           Z
   0 N     7.0000    0    14.007    0.000000   -0.000877    0.258809
   1 H     1.0000    0     1.008   -0.000000    1.934524   -0.515907
   2 H     1.0000    0     1.008   -1.677282   -0.966825   -0.515553
   3 H     1.0000    0     1.008    1.677282   -0.966825   -0.515553

--------------------------------
INTERNAL COORDINATES (ANGSTROEM)
--------------------------------
 N      0   0   0     0.000000000000     0.00000000     0.00000000
 H      1   0   0     1.103174434591     0.00000000     0.00000000
 H      1   2   0     1.103174563688   106.98550100     0.00000000
 H      1   2   3     1.103174563688   106.98550100   114.54797298

---------------------------
INTERNAL COORDINATES (A.U.)
---------------------------
 N      0   0   0     0.000000000000     0.00000000     0.00000000
 H      1   0   0     2.084697559320     0.00000000     0.00000000
 H      1   2   0     2.084697803279   106.98550100     0.00000000
 H      1   2   3     2.084697803278   106.98550100   114.54797298

------------------------------------------------------------------------------
                   ___                                                        
                  /   \      - P O W E R E D   B Y -                         
                 /     \                                                     
                 |  |  |   _    _      __       _____    __    __             
                 |  |  |  | |  | |    /  \     |  _  \  |  |  /  |          
                  \  \/   | |  | |   /    \    | | | |  |  | /  /          
                 / \  \   | |__| |  /  /\  \   | |_| |  |  |/  /          
                |  |  |   |  __  | /  /__\  \  |    /   |      \           
                |  |  |   | |  | | |   __   |  |    \   |  |\   \          
                \     /   | |  | | |  |  |  |  | |\  \  |  | \   \       
                 \___/    |_|  |_| |__|  |__|  |_| \__\ |__|  \__/        
                                                                              
                      - O R C A' S   B I G   F R I E N D -                    
                                      &                                       
                       - I N T E G R A L  F E E D E R -                       
                                                                              
 v1 FN, 2020, v2 2021, v3 2022-2024                                           
------------------------------------------------------------------------------


----------------------
SHARK INTEGRAL PACKAGE
----------------------

Number of atoms                             ...      4
Number of basis functions                   ...     73
Number of shells                            ...     29
Maximum angular momentum                    ...      3
Integral batch strategy                     ... SHARK/LIBINT Hybrid
RI-J (if used) integral strategy            ... SPLIT-RIJ (Revised 2003 algorithm where possible)
Printlevel                                  ...      1
Contraction scheme used                     ... SEGMENTED contraction
Prescreening option                         ... SCHWARTZ
   Thresh                                   ... 1.000e-12
   Tcut                                     ... 1.000e-14
   Tpresel                                  ... 1.000e-14 
Coulomb Range Separation                    ... NOT USED
Exchange Range Separation                   ... NOT USED
Multipole approximations                    ... NOT USED
Finite Nucleus Model                        ... NOT USED
CABS basis                                  ... NOT available
Auxiliary Coulomb fitting basis             ... AVAILABLE
   # of basis functions in Aux-J            ...     82
   # of shells in Aux-J                     ...     30
   Maximum angular momentum in Aux-J        ...      4
Auxiliary J/K fitting basis                 ... NOT available
Auxiliary Correlation fitting basis         ... NOT available
Auxiliary 'external' fitting basis          ... NOT available

Checking pre-screening integrals            ... done (  0.0 sec) Dimension = 29
Check shell pair data                       ... done (  0.0 sec)
Shell pair information
Shell pair cut-off parameter TPreSel        ...   1.0e-14
Total number of shell pairs                 ...       435
Shell pairs after pre-screening             ...       435
Total number of primitive shell pairs       ...      1021
Primitive shell pairs kept                  ...       988
          la=0 lb=0:    105 shell pairs
          la=1 lb=0:    126 shell pairs
          la=1 lb=1:     45 shell pairs
          la=2 lb=0:     70 shell pairs
          la=2 lb=1:     45 shell pairs
          la=2 lb=2:     15 shell pairs
          la=3 lb=0:     14 shell pairs
          la=3 lb=1:      9 shell pairs
          la=3 lb=2:      5 shell pairs
          la=3 lb=3:      1 shell pairs

Calculating one electron integrals          ... done (  0.0 sec)
Calculating RI/J V-Matrix + Cholesky decomp.... done (  0.0 sec)
Calculating Nuclear repulsion               ... done (  0.0 sec) ENN=     10.968290546031 Eh

Diagonalization of the overlap matrix:
Smallest eigenvalue                        ... 1.471e-03
Time for diagonalization                   ...    0.000 sec
Threshold for overlap eigenvalues          ... 1.000e-07
Number of eigenvalues below threshold      ... 0
Time for construction of square roots      ...    0.001 sec
Total time needed                          ...    0.008 sec

-------------------
DFT GRID GENERATION
-------------------

General Integration Accuracy     IntAcc      ... 4.388
Radial Grid Type                 RadialGrid  ... OptM3 with GC (2021)
Angular Grid (max. ang.)         AngularGrid ... 4 (Lebedev-302)
Angular grid pruning method      GridPruning ... 4 (adaptive)
Weight generation scheme         WeightScheme... mBecke (2022)
Basis function cutoff            BFCut       ... 1.0000e-12
Integration weight cutoff        WCut        ... 1.0000e-14
Partially contracted basis set               ... off
Rotationally invariant grid construction     ... off
Angular grids for H and He will be reduced by one unit

Total number of grid points                  ...    16039
Total number of batches                      ...      253
Average number of points per batch           ...       63
Average number of grid points per atom       ...     4010
Initializing property integral containers    ... done (  0.0 sec)

SHARK setup successfully completed in   0.1 seconds

Maximum memory used throughout the entire STARTUP-calculation: 13.8 MB
Occupation numbers will be reassigned to an Aufbau configuration
             **** ENERGY FILE WAS UPDATED (NH3_Freq-HFS.en.tmp) ****
Finished Guess after   0.1 sec
Maximum memory used throughout the entire GUESS-calculation: 7.7 MB
----------------------------------------D-I-I-S--------------------------------------------
Iteration    Energy (Eh)           Delta-E    RMSDP     MaxDP     DIISErr   Damp  Time(sec)
-------------------------------------------------------------------------------------------
               ***  Starting incremental Fock matrix formation  ***
    1    -48.9507765915973465     0.00e+00  1.68e-03  3.07e-02  3.57e-02  0.700   0.1
Warning: op=0 Small HOMO/LUMO gap (   0.073) - skipping pre-diagonalization
         Will do a full diagonalization
    2    -48.9527792049061503    -2.00e-03  2.14e-03  5.44e-02  2.56e-02  0.700   0.1
                               ***Turning on AO-DIIS***
    3    -48.9540379102243861    -1.26e-03  1.70e-03  4.53e-02  1.80e-02  0.700   0.1
    4    -48.9548614206460400    -8.24e-04  4.42e-03  1.29e-01  1.21e-02  0.000   0.1
                              *** Initializing SOSCF ***
---------------------------------------S-O-S-C-F--------------------------------------
Iteration    Energy (Eh)           Delta-E    RMSDP     MaxDP     MaxGrad    Time(sec)
--------------------------------------------------------------------------------------
    5    -48.9566705214405999    -1.81e-03  3.14e-04  1.17e-02  1.04e-03     0.1
               *** Restarting incremental Fock matrix formation ***
    6    -48.9566752357977748    -4.71e-06  2.65e-04  9.43e-03  1.69e-04     0.0
    7    -48.9566757768887157    -5.41e-07  2.25e-04  8.24e-03  2.66e-04     0.0
    8    -48.9566756436826438     1.33e-07  1.76e-04  6.29e-03  2.75e-04     0.0
    9    -48.9566761439681244    -5.00e-07  5.69e-06  6.68e-05  3.33e-05     0.1
   10    -48.9566761514575575    -7.49e-09  5.53e-06  2.09e-04  1.44e-05     0.1
   11    -48.9566761531704202    -1.71e-09  8.61e-07  2.88e-05  1.39e-06     0.0
   12    -48.9566761531908412    -2.04e-11  1.44e-07  2.67e-06  9.77e-07     0.1
                 **** Energy Check signals convergence ****

               *****************************************************
               *                     SUCCESS                       *
               *           SCF CONVERGED AFTER  12 CYCLES          *
               *****************************************************

             **** ENERGY FILE WAS UPDATED (NH3_Freq-HFS.en.tmp) ****

----------------
TOTAL SCF ENERGY
----------------

Total Energy       :        -48.95667615319084 Eh           -1332.17888 eV

Components:
Nuclear Repulsion  :         10.96829054603095 Eh             298.46236 eV
Electronic Energy  :        -59.92496669922178 Eh           -1630.64124 eV
One Electron Energy:        -94.51903520779267 Eh           -2571.99371 eV
Two Electron Energy:         34.59406850857089 Eh             941.35246 eV

Virial components:
Potential Energy   :        -99.04117497854705 Eh           -2695.04738 eV
Kinetic Energy     :         50.08449882535620 Eh            1362.86850 eV
Virial Ratio       :          1.97748160212009

DFT components:
N(Alpha)           :        0.000000000000 electrons
N(Beta)            :        0.000000000000 electrons
N(Total)           :        0.000000000000 electrons
E(X)               :        0.000000000000 Eh       
E(C)               :        0.000000000000 Eh       
E(XC)              :        0.000000000000 Eh       

---------------
SCF CONVERGENCE
---------------

  Last Energy change         ...    2.0421e-11  Tolerance :   1.0000e-09
  Last MAX-Density change    ...    2.6658e-06  Tolerance :   1.0000e-08
  Last RMS-Density change    ...    1.4368e-07  Tolerance :   1.0000e-09
  Last DIIS Error            ...    1.0351e-03  Tolerance :   1.0000e-08
  Last Orbital Gradient      ...    9.7698e-07  Tolerance :   2.0000e-06
  Last Orbital Rotation      ...    1.7860e-06  Tolerance :   2.0000e-06


Total SCF time: 0 days 0 hours 0 min 0 sec 
Finished LeanSCF after   0.8 sec

Maximum memory used throughout the entire LEANSCF-calculation: 5.6 MB

-------------------------   --------------------
FINAL SINGLE POINT ENERGY       -48.956676153191
-------------------------   --------------------

------------------------------------------------------------------------------
                         ORCA SCF GRADIENT CALCULATION
------------------------------------------------------------------------------

Nuc. rep. gradient        (SHARK) ... done (  0.0 sec)
HCore & Overlap gradient  (SHARK) ... done (  0.0 sec)
Split-RIJ-J gradient      (SHARK) ... done (  0.1 sec)

------------------
CARTESIAN GRADIENT
------------------

   1   N   :    0.000000000    0.000091964   -0.153986359
   2   H   :   -0.000000000   -0.124510814    0.051306491
   3   H   :    0.107775370    0.062209425    0.051339934
   4   H   :   -0.107775370    0.062209425    0.051339934

Difference to translation invariance:
           :    0.0000000000    0.0000000000    0.0000000000

Difference to rotation invariance:
           :    0.0000000026   -0.0000000000    0.0000000000

Norm of the Cartesian gradient     ...    0.2794454677
RMS gradient                       ...    0.0806689580
MAX gradient                       ...    0.1539863589

-------
TIMINGS
-------

Total SCF gradient time     ....        0.068 sec

One electron gradient       ....       0.008 sec  ( 11.8%)
RI-J Coulomb gradient       ....       0.060 sec  ( 88.2%)

Maximum memory used throughout the entire SCFGRAD-calculation: 7.7 MB
------------------------------------------------------------------------------
                         ORCA GEOMETRY RELAXATION STEP
------------------------------------------------------------------------------

Reading the OPT-File                    .... done
Getting information on internals        .... done
Copying old internal coords+grads       .... done
Making the new internal coordinates     .... (2022 redundants) done
Validating the new internal coordinates .... (2022 redundants) done
Calculating the B-matrix                .... done
Calculating the G,G- and P matrices     .... done
Transforming gradient to internals      .... done
Projecting the internal gradient        .... done
Number of atoms                         ....   4
Number of internal coordinates          ....   7
Current Energy                          ....   -48.956676153 Eh
Current gradient norm                   ....     0.279445468 Eh/bohr
Maximum allowed component of the step   ....  0.300
Current trust radius                    ....  0.300
Updating the Hessian (BFGS)             .... done
Forming the augmented Hessian           .... done
Diagonalizing the augmented Hessian     .... done
Last element of RFO vector              ....  0.930393263
Lowest eigenvalues of augmented Hessian:
 -0.090330807  0.111076689  0.302702146  0.302908016  0.430235541
Length of the computed step             ....  0.393987077
Warning: the length of the step is outside the trust region - taking restricted step instead
The input lambda is                     ....     0.108311
   iter:   5  x=    0.101657  g= 6542.627419 f(x)=    16.838513
   iter:  10  x=    0.025813  g=    9.918137 f(x)=     0.371131
   iter:  15  x=   -0.266327  g=    0.238116 f(x)=     0.000162
The output lambda is                    ....    -0.266328 (18 iterations)
The final length of the internal step   ....  0.300000000
Converting the step to Cartesian space:
 Initial RMS(Int)=    0.1133893419
Transforming coordinates:
 Iter   0:  RMS(Cart)=    0.0784215615 RMS(Int)=    0.1133689543
 Iter   5:  RMS(Cart)=    0.0000000184 RMS(Int)=    0.0000000281
done
Storing new coordinates                 .... done
The predicted energy change is          ....    -0.046784774
Previously predicted energy change      ....    -0.097529806
Actually observed energy change         ....    -0.091576585
Ratio of predicted to observed change   ....     0.938959982
New trust radius                        ....     0.450000000

                                .--------------------.
          ----------------------|Geometry convergence|-------------------------
          Item                value                   Tolerance       Converged
          ---------------------------------------------------------------------
          Energy change      -0.0915765853            0.0000010000      NO
          RMS gradient        0.0881409456            0.0000100000      NO
          MAX gradient        0.1346604819            0.0001000000      NO
          RMS step            0.1133893419            0.0000100000      NO
          MAX step            0.1721712287            0.0001000000      NO
          ........................................................
          Max(Bonds)      0.0911      Max(Angles)    0.97
          Max(Dihed)        0.00      Max(Improp)    1.48
          ---------------------------------------------------------------------

The optimization has not yet converged - more geometry cycles are needed


    ---------------------------------------------------------------------------
                         Redundant Internal Coordinates
                            (Angstroem and degrees)

        Definition                    Value    dE/dq     Step     New-Value
    ----------------------------------------------------------------------------
     1. B(H   1,N   0)                1.1032 -0.134660  0.0911    1.1943   
     2. B(H   2,N   0)                1.1032 -0.134608  0.0910    1.1942   
     3. B(H   3,N   0)                1.1032 -0.134608  0.0910    1.1942   
     4. A(H   1,N   0,H   3)          106.99  0.000690   -0.61    106.38   
     5. A(H   2,N   0,H   3)          107.14  0.002131   -0.97    106.17   
     6. A(H   1,N   0,H   2)          106.99  0.000690   -0.61    106.38   
     7. I(H   1,H   3,H   2,N   0)     60.53 -0.002092    1.48     62.01   
    ----------------------------------------------------------------------------

Geometry step timings:
Preparation and reading OPT file:      0.004 s (66.667 %)
Internal coordinates            :      0.000 s ( 0.000 %)
B/P matrices and projection     :      0.001 s (16.667 %)
Hessian update/contruction      :      0.001 s (16.667 %)
Making the step                 :      0.000 s ( 0.000 %)
Converting the step to Cartesian:      0.000 s ( 0.000 %)
Storing new data                :      0.000 s ( 0.000 %)
Checking convergence            :      0.000 s ( 0.000 %)
Final printing                  :      0.000 s ( 0.000 %)
Total time                      :      0.006 s

Time for energy+gradient        :      1.161 s
Time for complete geometry iter :      1.205 s

         *************************************************************
         *                GEOMETRY OPTIMIZATION CYCLE   3            *
         *************************************************************
---------------------------------
CARTESIAN COORDINATES (ANGSTROEM)
---------------------------------
  N      0.000000    0.000674    0.171998
  H     -0.000000    1.104320   -0.284379
  H     -0.954775   -0.552497   -0.284653
  H      0.954775   -0.552497   -0.284653

----------------------------
CARTESIAN COORDINATES (A.U.)
----------------------------
  NO LB      ZA    FRAG     MASS         X           Y           Z
   0 N     7.0000    0    14.007    0.000000    0.001273    0.325028
   1 H     1.0000    0     1.008   -0.000000    2.086861   -0.537398
   2 H     1.0000    0     1.008   -1.804263   -1.044068   -0.537917
   3 H     1.0000    0     1.008    1.804263   -1.044068   -0.537917

--------------------------------
INTERNAL COORDINATES (ANGSTROEM)
--------------------------------
 N      0   0   0     0.000000000000     0.00000000     0.00000000
 H      1   0   0     1.194283525068     0.00000000     0.00000000
 H      1   2   0     1.194204290607   106.37568870     0.00000000
 H      1   2   3     1.194204290607   106.37568870   112.88090152

---------------------------
INTERNAL COORDINATES (A.U.)
---------------------------
 N      0   0   0     0.000000000000     0.00000000     0.00000000
 H      1   0   0     2.256868788632     0.00000000     0.00000000
 H      1   2   0     2.256719057201   106.37568870     0.00000000
 H      1   2   3     2.256719057202   106.37568870   112.88090152

------------------------------------------------------------------------------
                   ___                                                        
                  /   \      - P O W E R E D   B Y -                         
                 /     \                                                     
                 |  |  |   _    _      __       _____    __    __             
                 |  |  |  | |  | |    /  \     |  _  \  |  |  /  |          
                  \  \/   | |  | |   /    \    | | | |  |  | /  /          
                 / \  \   | |__| |  /  /\  \   | |_| |  |  |/  /          
                |  |  |   |  __  | /  /__\  \  |    /   |      \           
                |  |  |   | |  | | |   __   |  |    \   |  |\   \          
                \     /   | |  | | |  |  |  |  | |\  \  |  | \   \       
                 \___/    |_|  |_| |__|  |__|  |_| \__\ |__|  \__/        
                                                                              
                      - O R C A' S   B I G   F R I E N D -                    
                                      &                                       
                       - I N T E G R A L  F E E D E R -                       
                                                                              
 v1 FN, 2020, v2 2021, v3 2022-2024                                           
------------------------------------------------------------------------------


----------------------
SHARK INTEGRAL PACKAGE
----------------------

Number of atoms                             ...      4
Number of basis functions                   ...     73
Number of shells                            ...     29
Maximum angular momentum                    ...      3
Integral batch strategy                     ... SHARK/LIBINT Hybrid
RI-J (if used) integral strategy            ... SPLIT-RIJ (Revised 2003 algorithm where possible)
Printlevel                                  ...      1
Contraction scheme used                     ... SEGMENTED contraction
Prescreening option                         ... SCHWARTZ
   Thresh                                   ... 1.000e-12
   Tcut                                     ... 1.000e-14
   Tpresel                                  ... 1.000e-14 
Coulomb Range Separation                    ... NOT USED
Exchange Range Separation                   ... NOT USED
Multipole approximations                    ... NOT USED
Finite Nucleus Model                        ... NOT USED
CABS basis                                  ... NOT available
Auxiliary Coulomb fitting basis             ... AVAILABLE
   # of basis functions in Aux-J            ...     82
   # of shells in Aux-J                     ...     30
   Maximum angular momentum in Aux-J        ...      4
Auxiliary J/K fitting basis                 ... NOT available
Auxiliary Correlation fitting basis         ... NOT available
Auxiliary 'external' fitting basis          ... NOT available

Checking pre-screening integrals            ... done (  0.0 sec) Dimension = 29
Check shell pair data                       ... done (  0.0 sec)
Shell pair information
Shell pair cut-off parameter TPreSel        ...   1.0e-14
Total number of shell pairs                 ...       435
Shell pairs after pre-screening             ...       435
Total number of primitive shell pairs       ...      1021
Primitive shell pairs kept                  ...       982
          la=0 lb=0:    105 shell pairs
          la=1 lb=0:    126 shell pairs
          la=1 lb=1:     45 shell pairs
          la=2 lb=0:     70 shell pairs
          la=2 lb=1:     45 shell pairs
          la=2 lb=2:     15 shell pairs
          la=3 lb=0:     14 shell pairs
          la=3 lb=1:      9 shell pairs
          la=3 lb=2:      5 shell pairs
          la=3 lb=3:      1 shell pairs

Calculating one electron integrals          ... done (  0.0 sec)
Calculating RI/J V-Matrix + Cholesky decomp.... done (  0.0 sec)
Calculating Nuclear repulsion               ... done (  0.0 sec) ENN=     10.135925315326 Eh

Diagonalization of the overlap matrix:
Smallest eigenvalue                        ... 2.563e-03
Time for diagonalization                   ...    0.000 sec
Threshold for overlap eigenvalues          ... 1.000e-07
Number of eigenvalues below threshold      ... 0
Time for construction of square roots      ...    0.001 sec
Total time needed                          ...    0.007 sec

-------------------
DFT GRID GENERATION
-------------------

General Integration Accuracy     IntAcc      ... 4.388
Radial Grid Type                 RadialGrid  ... OptM3 with GC (2021)
Angular Grid (max. ang.)         AngularGrid ... 4 (Lebedev-302)
Angular grid pruning method      GridPruning ... 4 (adaptive)
Weight generation scheme         WeightScheme... mBecke (2022)
Basis function cutoff            BFCut       ... 1.0000e-12
Integration weight cutoff        WCut        ... 1.0000e-14
Partially contracted basis set               ... off
Rotationally invariant grid construction     ... off
Angular grids for H and He will be reduced by one unit

Total number of grid points                  ...    16054
Total number of batches                      ...      252
Average number of points per batch           ...       63
Average number of grid points per atom       ...     4014
Initializing property integral containers    ... done (  0.0 sec)

SHARK setup successfully completed in   0.1 seconds

Maximum memory used throughout the entire STARTUP-calculation: 13.8 MB
Occupation numbers will be reassigned to an Aufbau configuration
             **** ENERGY FILE WAS UPDATED (NH3_Freq-HFS.en.tmp) ****
Finished Guess after   0.1 sec
Maximum memory used throughout the entire GUESS-calculation: 7.7 MB
----------------------------------------D-I-I-S--------------------------------------------
Iteration    Energy (Eh)           Delta-E    RMSDP     MaxDP     DIISErr   Damp  Time(sec)
-------------------------------------------------------------------------------------------
               ***  Starting incremental Fock matrix formation  ***
    1    -49.0069822397223334     0.00e+00  1.19e-03  3.21e-02  3.31e-02  0.700   0.1
Warning: op=0 Small HOMO/LUMO gap (   0.075) - skipping pre-diagonalization
         Will do a full diagonalization
    2    -49.0083767223915601    -1.39e-03  1.68e-03  5.14e-02  2.09e-02  0.700   0.1
                               ***Turning on AO-DIIS***
    3    -49.0092093663144084    -8.33e-04  1.27e-03  3.91e-02  1.50e-02  0.700   0.1
    4    -49.0097648799447398    -5.56e-04  3.23e-03  1.06e-01  1.00e-02  0.000   0.1
                              *** Initializing SOSCF ***
---------------------------------------S-O-S-C-F--------------------------------------
Iteration    Energy (Eh)           Delta-E    RMSDP     MaxDP     MaxGrad    Time(sec)
--------------------------------------------------------------------------------------
    5    -49.0109724240397924    -1.21e-03  1.95e-04  7.12e-03  1.73e-03     0.1
               *** Restarting incremental Fock matrix formation ***
    6    -49.0109773576222096    -4.93e-06  1.04e-04  3.82e-03  1.20e-04     0.1
    7    -49.0109775598517814    -2.02e-07  4.49e-05  1.73e-03  5.01e-05     0.1
    8    -49.0109774950847310     6.48e-08  3.36e-05  1.26e-03  1.35e-04     0.1
    9    -49.0109775744621601    -7.94e-08  2.09e-06  4.77e-05  5.71e-06     0.1
   10    -49.0109775748241532    -3.62e-10  6.97e-07  1.58e-05  3.10e-06     0.1
                 **** Energy Check signals convergence ****

               *****************************************************
               *                     SUCCESS                       *
               *           SCF CONVERGED AFTER  10 CYCLES          *
               *****************************************************

             **** ENERGY FILE WAS UPDATED (NH3_Freq-HFS.en.tmp) ****

----------------
TOTAL SCF ENERGY
----------------

Total Energy       :        -49.01097757482415 Eh           -1333.65650 eV

Components:
Nuclear Repulsion  :         10.13592531532619 Eh             275.81255 eV
Electronic Energy  :        -59.14690289015034 Eh           -1609.46905 eV
One Electron Energy:        -92.96713792946197 Eh           -2529.76443 eV
Two Electron Energy:         33.82023503931163 Eh             920.29538 eV

Virial components:
Potential Energy   :        -98.84861685884219 Eh           -2689.80761 eV
Kinetic Energy     :         49.83763928401804 Eh            1356.15111 eV
Virial Ratio       :          1.98341290396034

DFT components:
N(Alpha)           :        0.000000000000 electrons
N(Beta)            :        0.000000000000 electrons
N(Total)           :        0.000000000000 electrons
E(X)               :        0.000000000000 Eh       
E(C)               :        0.000000000000 Eh       
E(XC)              :        0.000000000000 Eh       

---------------
SCF CONVERGENCE
---------------

  Last Energy change         ...    3.6199e-10  Tolerance :   1.0000e-09
  Last MAX-Density change    ...    1.5767e-05  Tolerance :   1.0000e-08
  Last RMS-Density change    ...    6.9715e-07  Tolerance :   1.0000e-09
  Last DIIS Error            ...    1.7300e-03  Tolerance :   1.0000e-08
  Last Orbital Gradient      ...    3.0968e-06  Tolerance :   2.0000e-06
  Last Orbital Rotation      ...    6.0274e-06  Tolerance :   2.0000e-06


Total SCF time: 0 days 0 hours 0 min 0 sec 
Finished LeanSCF after   0.8 sec

Maximum memory used throughout the entire LEANSCF-calculation: 5.7 MB

-------------------------   --------------------
FINAL SINGLE POINT ENERGY       -49.010977574824
-------------------------   --------------------

------------------------------------------------------------------------------
                         ORCA SCF GRADIENT CALCULATION
------------------------------------------------------------------------------

Nuc. rep. gradient        (SHARK) ... done (  0.0 sec)
HCore & Overlap gradient  (SHARK) ... done (  0.0 sec)
Split-RIJ-J gradient      (SHARK) ... done (  0.1 sec)

------------------
CARTESIAN GRADIENT
------------------

   1   N   :   -0.000000000   -0.000053745   -0.105564256
   2   H   :   -0.000000000   -0.070855342    0.035218797
   3   H   :    0.061486284    0.035454544    0.035172730
   4   H   :   -0.061486284    0.035454544    0.035172730

Difference to translation invariance:
           :    0.0000000000   -0.0000000000   -0.0000000000

Difference to rotation invariance:
           :   -0.0000000010    0.0000000000    0.0000000000

Norm of the Cartesian gradient     ...    0.1730724575
RMS gradient                       ...    0.0499617150
MAX gradient                       ...    0.1055642556

-------
TIMINGS
-------

Total SCF gradient time     ....        0.068 sec

One electron gradient       ....       0.008 sec  ( 11.8%)
RI-J Coulomb gradient       ....       0.060 sec  ( 88.2%)

Maximum memory used throughout the entire SCFGRAD-calculation: 7.7 MB
------------------------------------------------------------------------------
                         ORCA GEOMETRY RELAXATION STEP
------------------------------------------------------------------------------

Reading the OPT-File                    .... done
Getting information on internals        .... done
Copying old internal coords+grads       .... done
Making the new internal coordinates     .... (2022 redundants) done
Validating the new internal coordinates .... (2022 redundants) done
Calculating the B-matrix                .... done
Calculating the G,G- and P matrices     .... done
Transforming gradient to internals      .... done
Projecting the internal gradient        .... done
Number of atoms                         ....   4
Number of internal coordinates          ....   7
[...]
Finished LeanSCF after   0.5 sec

Maximum memory used throughout the entire LEANSCF-calculation: 7.9 MB

-------------------------   --------------------
FINAL SINGLE POINT ENERGY       -49.075954864488
-------------------------   --------------------

                                *** OPTIMIZATION RUN DONE ***


------------------------------------------------------------------------------
                              ORCA PROPERTY CALCULATIONS
------------------------------------------------------------------------------

GBWName                                 ... NH3_Freq-HFS.gbw
Number of atoms                         ...      4
Number of basis functions               ...     73
Max core memory                         ...   4000 MB

Electric properties:
Dipole moment                           ... YES
Quadrupole moment                       ...  NO
Static polarizability (Dipole/Dipole)   ...  NO
Static polarizability (Dipole/Quad.)    ...  NO
Static polarizability (Quad./Quad.)     ...  NO
Static polarizability (Velocity)        ...  NO

Atomic electric properties:
Dipole moment                           ...  NO
Quadrupole moment                       ...  NO
Static polarizability                   ...  NO

Choice of electric origin               ... Center of mass
Position of electric origin             ...    -0.000000     0.000794     0.600804

General magnetic properties:
Magnetizability                         ...  NO

EPR properties:
g-Tensor (aka g-matrix)                 ...  NO
Zero-Field splitting spin-orbit         ...  NO
Zero-field splitting spin-spin          ...  NO
Hyperfine couplings                     ...  NO (   0 nuclei)
Quadrupole couplings                    ...  NO (   0 nuclei)
Contact density                         ...  NO (   0 nuclei)

NMR properties:
Chemical shifts                         ...  NO (   0 nuclei)
Spin-rotation constants                 ...  NO (   0 nuclei)
Spin-spin couplings                     ...  NO (   0 nuclei,    0 pairs)

Choice of magnetic origin               ... GIAO
Position of magnetic origin             ...     0.000000     0.000000     0.000000

Properties with geometric perturbations:
SCF Hessian                             ...  NO
IR spectrum                             ... YES
VCD spectrum                            ...  NO
X-ray spectroscopy properties:
SCF XES/XAS/RIXS spectra                ...  NO


-------------
DIPOLE MOMENT
-------------

Method             : SCF
Type of density    : Electron Density
Multiplicity       :   1
Irrep              :   0
Energy             :   -49.0759548644878691 Eh
Relativity type    : 
Basis              : AO
                                X                 Y                 Z
Electronic contribution:     -0.000000000       0.001613453       1.871794458
Nuclear contribution   :      0.000000000      -0.001698721      -1.973925177
                        -----------------------------------------
Total Dipole Moment    :     -0.000000000      -0.000085268      -0.102130719
                        -----------------------------------------
Magnitude (a.u.)       :      0.102130755
Magnitude (Debye)      :      0.259595748



--------------------
Rotational spectrum 
--------------------
 
Rotational constants in cm-1:             3.900041             3.900027             3.354927 
Rotational constants in MHz :        116920.292939        116919.873984        100578.188882 

Dipole components along the rotational axes: 
x,y,z [a.u.] :    -0.000000    -0.000000    -0.102131 
x,y,z [Debye]:    -0.000000    -0.000001    -0.259596 

 

Dipole moment calculation done in   0.0 sec 

Maximum memory used throughout the entire PROP-calculation: 6.1 MB

----------------------------------------------------------------------------
                           ORCA NUMERICAL FREQUENCIES
----------------------------------------------------------------------------

Number of atoms                ... 4
Central differences            ... used
Number of displacements        ... 24
Numerical increment            ... 5.000e-03 bohr
IR-spectrum generation         ... on
Raman-spectrum generation      ... off
Surface Crossing Hessian       ... off

The output will be reduced. Please look at the following files:
SCF program output             ... >NH3_Freq-HFS.lastscf
Integral program output        ... >NH3_Freq-HFS.lastint
Gradient program output        ... >NH3_Freq-HFS.lastgrad
Dipole moment program output   ... >NH3_Freq-HFS.lastmom

	<< Calculating gradient on displaced geometry   1 (of  24) >>
	<< Calculating gradient on displaced geometry   2 (of  24) >>
	<< Calculating gradient on displaced geometry   3 (of  24) >>
	<< Calculating gradient on displaced geometry   4 (of  24) >>
	<< Calculating gradient on displaced geometry   5 (of  24) >>
	<< Calculating gradient on displaced geometry   6 (of  24) >>
	<< Calculating gradient on displaced geometry   7 (of  24) >>
	<< Calculating gradient on displaced geometry   8 (of  24) >>
	<< Calculating gradient on displaced geometry   9 (of  24) >>
	<< Calculating gradient on displaced geometry  10 (of  24) >>
	<< Calculating gradient on displaced geometry  11 (of  24) >>
	<< Calculating gradient on displaced geometry  12 (of  24) >>
	<< Calculating gradient on displaced geometry  13 (of  24) >>
	<< Calculating gradient on displaced geometry  14 (of  24) >>
	<< Calculating gradient on displaced geometry  15 (of  24) >>
	<< Calculating gradient on displaced geometry  16 (of  24) >>
	<< Calculating gradient on displaced geometry  17 (of  24) >>
	<< Calculating gradient on displaced geometry  18 (of  24) >>
	<< Calculating gradient on displaced geometry  19 (of  24) >>
	<< Calculating gradient on displaced geometry  20 (of  24) >>
	<< Calculating gradient on displaced geometry  21 (of  24) >>
	<< Calculating gradient on displaced geometry  22 (of  24) >>
	<< Calculating gradient on displaced geometry  23 (of  24) >>
	<< Calculating gradient on displaced geometry  24 (of  24) >>

-----------------------
VIBRATIONAL FREQUENCIES
-----------------------

Scaling factor for frequencies =  1.000000000  (already applied!)

     0:       0.00 cm**-1
     1:       0.00 cm**-1
     2:       0.00 cm**-1
     3:       0.00 cm**-1
     4:       0.00 cm**-1
     5:       0.00 cm**-1
     6:     841.65 cm**-1
     7:     854.46 cm**-1
     8:     855.63 cm**-1
     9:    1267.71 cm**-1
    10:    1268.26 cm**-1
    11:    1273.72 cm**-1


------------
NORMAL MODES
------------

These modes are the Cartesian displacements weighted by the diagonal matrix
M(i,i)=1/sqrt(m[i]) where m[i] is the mass of the displaced atom
Thus, these vectors are normalized but *not* orthogonal

                  0          1          2          3          4          5    
      0       0.000000   0.000000   0.000000   0.000000   0.000000   0.000000
      1       0.000000   0.000000   0.000000   0.000000   0.000000   0.000000
      2       0.000000   0.000000   0.000000   0.000000   0.000000   0.000000
      3       0.000000   0.000000   0.000000   0.000000   0.000000   0.000000
      4       0.000000   0.000000   0.000000   0.000000   0.000000   0.000000
      5       0.000000   0.000000   0.000000   0.000000   0.000000   0.000000
      6       0.000000   0.000000   0.000000   0.000000   0.000000   0.000000
      7       0.000000   0.000000   0.000000   0.000000   0.000000   0.000000
      8       0.000000   0.000000   0.000000   0.000000   0.000000   0.000000
      9       0.000000   0.000000   0.000000   0.000000   0.000000   0.000000
     10       0.000000   0.000000   0.000000   0.000000   0.000000   0.000000
     11       0.000000   0.000000   0.000000   0.000000   0.000000   0.000000
                  6          7          8          9         10         11    
      0      -0.000000   0.000000   0.051127  -0.000000  -0.072309   0.000000
      1       0.002123  -0.051809   0.000000   0.003019  -0.000000  -0.071694
      2       0.103633   0.003193   0.000000  -0.059000   0.000000  -0.002108
      3       0.000000  -0.000000  -0.713528  -0.000000  -0.013126   0.000000
      4      -0.306561  -0.248087   0.000000  -0.530678   0.000000   0.664540
      5      -0.467300  -0.332035   0.000000   0.292547  -0.000000  -0.430063
      6       0.287570  -0.397242   0.001539   0.430615   0.508958   0.322312
      7       0.138531   0.484011   0.412609   0.244360   0.301755   0.165852
      8      -0.486381   0.143833  -0.271814   0.263652   0.383673   0.229678
      9      -0.287570   0.397242   0.001539  -0.430615   0.508958  -0.322312
     10       0.138531   0.484011  -0.412609   0.244360  -0.301755   0.165852
     11      -0.486381   0.143833   0.271814   0.263652  -0.383673   0.229678


-----------
IR SPECTRUM
-----------

 Mode   freq       eps      Int      T**2         TX        TY        TZ
       cm**-1   L/(mol*cm) km/mol    a.u.
----------------------------------------------------------------------------
  6:    841.65   0.000830    4.19  0.000308  (-0.000000 -0.000640 -0.017530)
  7:    854.46   0.000147    0.74  0.000054  (-0.000000  0.007244  0.001143)
  8:    855.63   0.000412    2.08  0.000150  (-0.012264 -0.000000 -0.000000)
  9:   1267.71   0.009757   49.31  0.002402  (-0.000000  0.002099 -0.048963)
 10:   1268.26   0.022863  115.54  0.005626  (-0.075005 -0.000000  0.000000)
 11:   1273.72   0.021893  110.64  0.005364  ( 0.000000 -0.073229 -0.001191)

* The epsilon (eps) is given for a Dirac delta lineshape.
** The dipole moment derivative (T) already includes vibrational overlap.

The first frequency considered to be a vibration is 6
The total number of vibrations considered is 6


--------------------------
THERMOCHEMISTRY AT 298.15K
--------------------------

Temperature         ...   298.15 K
Pressure            ...     1.00 atm
Total Mass          ...    17.03 AMU
Quasi RRHO          ...     True
Cut-Off Frequency   ...     1.00 cm^-1

Throughout the following assumptions are being made:
  (1) The electronic state is orbitally nondegenerate
  (2) There are no thermally accessible electronically excited states
  (3) Hindered rotations indicated by low frequency modes are not
      treated as such but are treated as vibrations and this may
      cause some error
  (4) All equations used are the standard statistical mechanics
      equations for an ideal gas
  (5) All vibrations are strictly harmonic

freq.     841.65  E(vib)   ...       0.04 
freq.     854.46  E(vib)   ...       0.04 
freq.     855.63  E(vib)   ...       0.04 
freq.    1267.71  E(vib)   ...       0.01 
freq.    1268.26  E(vib)   ...       0.01 
freq.    1273.72  E(vib)   ...       0.01 

------------
INNER ENERGY
------------

The inner energy is: U= E(el) + E(ZPE) + E(vib) + E(rot) + E(trans)
    E(el)   - is the total energy from the electronic structure calculation
              = E(kin-el) + E(nuc-el) + E(el-el) + E(nuc-nuc)
    E(ZPE)  - the the zero temperature vibrational energy from the frequency calculation
    E(vib)  - the the finite temperature correction to E(ZPE) due to population
              of excited vibrational states
    E(rot)  - is the rotational thermal energy
    E(trans)- is the translational thermal energy

Summary of contributions to the inner energy U:
Electronic energy                ...    -49.07595486 Eh
Zero point energy                ...      0.01449243 Eh       9.09 kcal/mol
Thermal vibrational correction   ...      0.00023302 Eh       0.15 kcal/mol
Thermal rotational correction    ...      0.00141627 Eh       0.89 kcal/mol
Thermal translational correction ...      0.00141627 Eh       0.89 kcal/mol
-----------------------------------------------------------------------
Total thermal energy                    -49.05839687 Eh


Summary of corrections to the electronic energy:
(perhaps to be used in another calculation)
Total thermal correction                  0.00306557 Eh       1.92 kcal/mol
Non-thermal (ZPE) correction              0.01449243 Eh       9.09 kcal/mol
-----------------------------------------------------------------------
Total correction                          0.01755800 Eh      11.02 kcal/mol


--------
ENTHALPY
--------

The enthalpy is H = U + kB*T
                kB is Boltzmann's constant
Total thermal energy              ...    -49.05839687 Eh 
Thermal Enthalpy correction       ...      0.00094421 Eh       0.59 kcal/mol
-----------------------------------------------------------------------
Total Enthalpy                    ...    -49.05745266 Eh


Note: Rotational entropy computed according to Herzberg 
Infrared and Raman Spectra, Chapter V,1, Van Nostrand Reinhold, 1945 
Point Group:  C3v, Symmetry Number:   3  
Rotational constants in cm-1:     3.900041     3.900027     3.354927 

Vibrational entropy computed according to the QRRHO of S. Grimme
Chem.Eur.J. 2012 18 9955 using a reference frequency of 100.0 cm-1


-------
ENTROPY
-------

The entropy contributions are T*S = T*(S(el)+S(vib)+S(rot)+S(trans))
     S(el)   - electronic entropy
     S(vib)  - vibrational entropy
     S(rot)  - rotational entropy
     S(trans)- translational entropy
The entropies will be listed as multiplied by the temperature to get
units of energy

Electronic entropy                ...      0.00000000 Eh      0.00 kcal/mol
Vibrational entropy               ...      0.00028651 Eh      0.18 kcal/mol
Rotational entropy                ...      0.00661707 Eh      4.15 kcal/mol
Translational entropy             ...      0.01636425 Eh     10.27 kcal/mol
-----------------------------------------------------------------------
Final entropy term                ...      0.02326784 Eh     14.60 kcal/mol

In case the symmetry of your molecule has not been determined correctly
or in case you have a reason to use a different symmetry number we print 
out the resulting rotational entropy values for sn=1,12:

 non-linear molecules -----------------------------------
|  sn= 1 | S(rot)=       0.00765436 Eh      4.80 kcal/mol|
|  sn= 2 | S(rot)=       0.00699990 Eh      4.39 kcal/mol|
|  sn= 3 | S(rot)=       0.00661707 Eh      4.15 kcal/mol|
|  sn= 4 | S(rot)=       0.00634545 Eh      3.98 kcal/mol|
|  sn= 5 | S(rot)=       0.00613476 Eh      3.85 kcal/mol|
|  sn= 6 | S(rot)=       0.00596262 Eh      3.74 kcal/mol|
|  sn= 7 | S(rot)=       0.00581707 Eh      3.65 kcal/mol|
|  sn= 8 | S(rot)=       0.00569099 Eh      3.57 kcal/mol|
|  sn= 9 | S(rot)=       0.00557978 Eh      3.50 kcal/mol|
|  sn=10 | S(rot)=       0.00548030 Eh      3.44 kcal/mol|
|  sn=11 | S(rot)=       0.00539031 Eh      3.38 kcal/mol|
|  sn=12 | S(rot)=       0.00530816 Eh      3.33 kcal/mol|
 linear molecules ---------------------------------------
|  Dinfh | S(rot)=       0.00418294 Eh      2.62 kcal/mol|
|  Cinfv | S(rot)=       0.00483740 Eh      3.04 kcal/mol|
 --------------------------------------------------------


-------------------
GIBBS FREE ENERGY
-------------------

The Gibbs free energy is G = H - T*S

Total enthalpy                    ...    -49.05745266 Eh 
Total entropy correction          ...     -0.02326784 Eh    -14.60 kcal/mol
-----------------------------------------------------------------------
Final Gibbs free energy         ...    -49.08072050 Eh

For completeness - the Gibbs free energy minus the electronic energy
G-E(el)                           ...     -0.00476563 Eh     -2.99 kcal/mol



--------------------------------
SUGGESTED CITATIONS FOR THIS RUN
--------------------------------

Below you find a list of papers that are relevant to this ORCA run
We neither can nor want to force you to cite these papers, but we appreciate if you do
You receive ORCA, which is the product of decades of hard work by many enthusiastic individuals, for free
The only thing we kindly ask in return is that you cite our papers,
We deeply appreciate it, if you show your appreciation for ORCA by not just citing the generic ORCA reference.

Please note that relegating all ORCA citations to the supporting information does *not* help us.
SI sections are not indexed - citations you put there will not count into any citation statistics
But we need these citations in order to attract the funding resources that allow us to do what we are doing

Therefore, if you are a happy ORCA user, please consider citing a few of the papers listed below in the main body of your paper

In addition to the list printed below, the program has created the file NH3_Freq-HFS.bibtex that contains the list in bibtex format
You can import this file easily into all common literature databanks and citation aid programs


List of essential papers. We consider these as the minimum necessary citations

  1. Neese,F.
     Software update: the ORCA program system, version 5.0
     WIRES Comput. Molec. Sci., 2022 12(1)e1606
     doi.org/10.1002/wcms.1606

List of papers to cite with high priority. The work reported in these papers was absolutely
necessary for this run to complete.
Our perspective: the developers of density functionals and basis sets usually get cited in chemistry papers
Good! But without the algorithms to do something with them, the functionals or basis sets would not do anything.
Hence, in our opinion, the algorithm design and method developments papers are equally worthy of getting cited

  1. Neese,F.
     An improvement of the resolution of the identity approximation for the formation of the Coulomb matrix
     J. Comp. Chem., 2003 24(14)1740-1747
     doi.org/10.1002/jcc.10318
  2. Bykov,D.; Petrenko,T.; Izsak,R.; Kossmann,S.; Becker,U.; Valeev,E.; Neese,F.
     Efficient implementation of the analytic second derivatives of Hartree-Fock and hybrid DFT energies: a detailed analysis of different approximations
     Molec. Phys., 2015 113 1961-1977
     doi.org/10.1080/00268976.2015.1025114
  3. Neese,F.
     The SHARK Integral Generation and Digestion System
     J. Comp. Chem., 2022  1-16
     doi.org/10.1002/jcc.26942

List of suggested additional citations. These are papers that are important in the 'surrounding' of 
of this run, or papers that preceded the highly important papers. If you like your results we are grateful for a citation.

  1. Neese,F.
     The ORCA program system
     WIRES Comput. Molec. Sci., 2012 2(1)73-78
     doi.org/10.1002/wcms.81
  2. Neese,F.
     Software update: the ORCA program system, version 4.0
     WIRES Comput. Molec. Sci., 2018 8(1)1-6
     doi.org/10.1002/wcms.1327
  3. Neese,F.; Wennmohs,F.; Becker,U.; Riplinger,C.
     The ORCA quantum chemistry program package
     J. Chem. Phys., 2020 152 Art. No. L224108
     doi.org/10.1063/5.0004608

List of optional additional citations

  1. Neese,F.
     Approximate second-order SCF convergence for spin unrestricted wavefunctions
     Chem. Phys. Lett., 2000 325(1-3)93-98
     doi.org/10.1016/s0009-2614(00)00662-x

Timings for individual modules:

Sum of individual times          ...       45.740 sec (=   0.762 min)
Startup calculation              ...        2.748 sec (=   0.046 min)   6.0 %
SCF iterations                   ...       13.490 sec (=   0.225 min)  29.5 %
Property calculations            ...        0.059 sec (=   0.001 min)   0.1 %
SCF Gradient evaluation          ...        2.105 sec (=   0.035 min)   4.6 %
Geometry relaxation              ...        0.157 sec (=   0.003 min)   0.3 %
Numerical frequency calculation  ...       27.181 sec (=   0.453 min)  59.4 %
                             ****ORCA TERMINATED NORMALLY****
TOTAL RUN TIME: 0 days 0 hours 0 minutes 46 seconds 15 msec
