
                                 *****************
                                 * O   R   C   A *
                                 *****************

                                            #,                                       
                                            ###                                      
                                            ####                                     
                                            #####                                    
                                            ######                                   
                                           ########,                                 
                                     ,,################,,,,,                         
                               ,,#################################,,                 
                          ,,##########################################,,             
                       ,#########################################, ''#####,          
                    ,#############################################,,   '####,        
                  ,##################################################,,,,####,       
                ,###########''''           ''''###############################       
              ,#####''   ,,,,##########,,,,          '''####'''          '####       
            ,##' ,,,,###########################,,,                        '##       
           ' ,,###''''                  '''############,,,                           
         ,,##''                                '''############,,,,        ,,,,,,###''
      ,#''                                            '''#######################'''  
     '                                                          ''''####''''         
             ,#######,   #######,   ,#######,      ##                                
            ,#'     '#,  ##    ##  ,#'     '#,    #''#        ,####,   ,####,        
            ##       ##  ##   ,#'  ##            #'  '#       #'       #'  '#        
            ##       ##  #######   ##           ,######,      #####,   #    #        
            '#,     ,#'  ##    ##  '#,     ,#' ,#      #,     #,   #   #,  ,#        
             '#######'   ##     ##  '#######'  #'      '#     '####' # '####'        



                #########################################################
                #                        -***-                          #
                #          Department of theory and spectroscopy        #
                #                                                       #
                #                      Frank Neese                      #
                #                                                       #
                #     Directorship, Architecture, Infrastructure        #
                #                    SHARK, DRIVERS                     #
                #        Core code/Algorithms in most modules           #
                #                                                       #
                #        Max Planck Institute fuer Kohlenforschung      #
                #                Kaiser Wilhelm Platz 1                 #
                #                 D-45470 Muelheim/Ruhr                 #
                #                      Germany                          #
                #                                                       #
                #                  All rights reserved                  #
                #                        -***-                          #
                #########################################################


                         Program Version 6.0.1  -  RELEASE   -


 With contributions from (in alphabetic order):
[Max-Planck-Institut fuer Kohlenforschung]                               
  Daniel Aravena         : Magnetic Suceptibility                        
  Michael Atanasov       : Ab Initio Ligand Field Theory (pilot matlab implementation)
  Alexander A. Auer      : GIAO ZORA, VPT2 properties, NMR spectrum      
  Ute Becker             : All parallelization in ORCA, NUMFREQ, NUMCALC 
  Giovanni Bistoni       : ED, misc. LED, open-shell LED, HFLD           
  Martin Brehm           : Molecular dynamics                            
  Dmytro Bykov           : pre 5.0 version of the SCF Hessian            
  Marcos Casanova-Páez   : Triplet and SCS-CIS(D). UHF-(DLPNO)-IP/EA/STEOM-CCSD. UHF-CVS-IP/STEOM-CCSD   
  Vijay G. Chilkuri      : MRCI spin determinant printing, contributions to CSF-ICE 
  Pauline Colinet        : FMM embedding                                 
  Dipayan Datta          : RHF DLPNO-CCSD density                        
  Achintya Kumar Dutta   : EOM-CC, STEOM-CC                              
  Nicolas Foglia         : Exact transition moments, OPA infrastructure, MCD improvements    
  Dmitry Ganyushin       : Spin-Orbit,Spin-Spin,Magnetic field MRCI      
  Miquel Garcia-Rates    : C-PCM and meta-GGA Hessian, CCSD/C-PCM, Gaussian charge scheme 
  Tiago L. C. Gouveia    : GS-ROHF, GS-ROCIS                             
  Yang Guo               : DLPNO-NEVPT2, F12-NEVPT2, CIM, IAO-localization        
  Andreas Hansen         : Spin unrestricted coupled pair/coupled cluster methods 
  Ingolf Harden          : AUTO-CI MPn and infrastructure                
  Benjamin Helmich-Paris : MC-RPA, TRAH-(SCF,CASSCF), AVAS, COSX integrals, SCF dyn. polar. 
  Lee Huntington         : MR-EOM, pCC                                   
  Robert Izsak           : Overlap fitted RIJCOSX, COSX-SCS-MP3, EOM     
  Riya Kayal             : Wick's Theorem for AUTO-CI, AUTO-CI UHF-CCSDT 
  Emily Kempfer          : AUTO-CI, RHF CISDT and CCSDT                  
  Christian Kollmar      : KDIIS, OOCD, Brueckner-CCSD(T), CCSD density, CASPT2, CASPT2-K, improved NEVPT2 
  Axel Koslowski         : Symmetry handling                             
  Simone Kossmann        : meta-GGA functionals, TD-DFT gradient, OOMP2, (MP2 Hessian; deprecated post 5.0) 
  Lucas Lang             : DCDCAS                                        
  Marvin Lechner         : AUTO-CI (C++ implementation), FIC-MRCC        
  Spencer Leger          : CASSCF response                               
  Dagmar Lenk            : GEPOL surface, SMD, ORCA-2-JSON               
  Dimitrios Liakos       : Extrapolation schemes; Compound Job, initial MDCI parallelization 
  Dimitrios Manganas     : Further ROCIS development; embedding schemes. LFT, Crystal Embedding 
  Dimitrios Pantazis     : SARC Basis sets                               
  Anastasios Papadopoulos: AUTO-CI, single reference methods and gradients 
  Taras Petrenko         : pre 6.0 DFT Hessian and TD-DFT gradient, (ASA, deprecated), ECA, 1-Electron XAS/XES, NRVS 
  Peter Pinski           : DLPNO-MP2, DLPNO-MP2 Gradient                 
  Christoph Reimann      : Effective Core Potentials                     
  Marius Retegan         : Local ZFS, SOC                                
  Christoph Riplinger    : Optimizer, TS searches, QM/MM, DLPNO-CCSD(T), (RO)-DLPNO pert. Triples 
  Michael Roemelt        : Original ROCIS implementation                 
  Masaaki Saitow         : Open-shell DLPNO-CCSD energy and density      
  Barbara Sandhoefer     : DKH picture change effects                    
  Kantharuban Sivalingam : CASSCF convergence/infrastructure, NEVPT2 and variants, FIC-MRCI 
  Bernardo de Souza      : ESD, SOC TD-DFT                               
  Georgi L. Stoychev     : AutoAux, RI-MP2 NMR, DLPNO-MP2 response, X2C  
  Van Anh Tran           : RI-MP2 g-tensors                              
  Willem Van den Heuvel  : Paramagnetic NMR                              
  Zikuan Wang            : NOTCH, Electric field optimization            
  Frank Wennmohs         : Technical directorship and infrastructure     
  Hang Xu                : AUTO-CI-Response properties                   
                                                                         
[FACCTs GmbH]                                                            
  Markus Bursch, Miquel Garcia-Rates, Christoph Riplinger, Bernardo de Souza, Georgi L. Stoychev 
                                                                 
  APM, Basis sets (HGBS, AHGBS, def-TZVP (Ac-Lr), def2-XVPD (La-Lu)), CI-OPT, improved COSX, DLPNO-Multilevel,           
  DOCKER, DRACO, updates on ESD, GOAT, IRC, LR-CPCM, MBIS, meta-GGA TD-DFT gradient, ML-optimized integration grids, 
  MM, NACMEs, nearIR, NEB, NEB-TS, NL-DFT gradient (VV10), 2- and 3-layer-ONIOM, interface openCOSMO-RS, QMMM,   
  Crystal-QMMM, SF, symmetry and pop. for TD-DFT, r2SCAN hybrids, SOLVATOR                                   
                                                                         
[Other institutions]                                                     
  V. Asgeirsson          : NEB                                           
  Christoph Bannwarth    : sTDA-DFT, sTD-DFT, PBEh-3c, B97-3c, D3        
  Sebastian Ehlert       : rSCAN, r2SCAN, r2SCAN-3c, D4, dhf basis sets  
  Marvin Friede          : D4 for Fr, Ra, Ac-Lr                          
  Lars Goerigk           : TD-DFT with DH, B97 family of functionals     
  Stefan Grimme          : VdW corrections, initial TS optimization, DFT functionals, gCP, sTDA/sTD-DF 
  Waldemar Hujo          : DFT-NL                                        
  H. Jonsson             : NEB                                           
  Holger Kruse           : gCP                                           
  Marcel Mueller         : wB97X-3c, vDZP basis set                      
  Hagen Neugebauer       : wr2SCAN                                       
  Tobias Risthaus        : range-separated hybrid DFT                    
  Lukas Wittmann         : regularized MP2, r2SCAN double-hybrids, wr2SCAN        
                                                                         
We gratefully acknowledge several colleagues who have allowed us to      
interface, adapt or use parts of their codes:                            
  Ed Valeev, F. Pavosevic, A. Kumar             : LibInt (2-el integral package), F12 methods 
  Garnet Chan, S. Sharma, J. Yang, R. Olivares  : DMRG                   
  Ulf Ekstrom                                   : XCFun DFT Library      
  Mihaly Kallay                                 : mrcc  (arbitrary order and MRCC methods)
  Frank Weinhold                                : gennbo (NPA and NBO analysis)           
  Simon Mueller                                 : openCOSMO-RS                            
  Christopher J. Cramer and Donald G. Truhlar   : smd solvation model                     
  S Lehtola, MJT Oliveira, MAL Marques          : LibXC Library                           
  Liviu Ungur et al                             : ANISO software                          


 Your calculation uses the libint2 library for the computation of 2-el integrals
 For citations please refer to: http://libint.valeyev.net

 Your ORCA version has been built with support for libXC version: 6.2.2
 For citations please refer to: https://libxc.gitlab.io

 This ORCA versions uses:
   CBLAS   interface :  Fast vector & matrix operations
   LAPACKE interface :  Fast linear algebra routines
   Shared memory     :  Shared parallel matrices


NOTE: MaxCore=4000 MB was set to SCF,MP2,MDCI,CIPSI,MRCI and CIS
      => If you want to overwrite this, your respective input block should be placed after the MaxCore statement
Warning: RI is on but no J-basis has been assigned. Assigning Def2/J (nothing to worry about!)
================================================================================

----- Orbital basis set information -----
Your calculation utilizes the basis: def2-TZVPP
   F. Weigend and R. Ahlrichs, Phys. Chem. Chem. Phys. 7, 3297 (2005).

----- AuxJ basis set information -----
Your calculation utilizes the auxiliary basis: def2/J
   F. Weigend, Phys. Chem. Chem. Phys. 8, 1057 (2006).

================================================================================
                                        WARNINGS
                       Please study these warnings very carefully!
================================================================================


WARNING: Analytical and numerical frequencies both set to true
  ===> : Disabling Anfreq

WARNING: Geometry Optimization
  ===> : Switching off AutoStart
         For restart on a previous wavefunction, please use MOREAD

================================================================================
                                       INPUT FILE
================================================================================
NAME = NH3_Freq-B3LYP.inp
|  1> ! B3LYP def2-TZVPP Opt TightOpt VeryTightSCF
|  2> 
|  3> ! Freq
|  4> ! NumFreq
|  5> 
|  6> %scf
|  7>    MaxIter 400          # Máximo de iteraciones permitidas para el SCF
|  8> end
|  9> 
| 10> %geom
| 11>    TolRMSD 1.0e-5
| 12>    TolMAXD 1.0e-4
| 13>    TolRMSG 1.0e-5
| 14>    TolMAXG 1.0e-4
| 15> end
| 16> 
| 17> %pal
| 18>    nprocs 1
| 19> end
| 20> 
| 21> 
| 22> %MaxCore 4000            # Memoria máxima por núcleo (en MB)
| 23> 
| 24> * xyz 0 1
| 25> N       0.00000000    0.00000000    0.11361500
| 26> H       0.00000000    0.93799100   -0.26510100
| 27> H      -0.81232400   -0.46899600   -0.26510100
| 28> H       0.81232400   -0.46899600   -0.26510100
| 29> **                         ****END OF INPUT****
================================================================================

                       *****************************
                       * Geometry Optimization Run *
                       *****************************

Geometry optimization settings:
Update method            Update   .... BFGS
Choice of coordinates    CoordSys .... (2022) Redundant Internals
Initial Hessian          InHess   .... Almloef's Model
Max. no of cycles        MaxIter  .... 50

Convergence Tolerances:
Energy Change            TolE     ....  1.0000e-06 Eh
Max. Gradient            TolMAXG  ....  1.0000e-04 Eh/bohr
RMS Gradient             TolRMSG  ....  1.0000e-05 Eh/bohr
Max. Displacement        TolMAXD  ....  1.0000e-04 bohr
RMS Displacement         TolRMSD  ....  1.0000e-05 bohr
Strict Convergence                .... False

------------------------------------------------------------------------------
                        ORCA OPTIMIZATION COORDINATE SETUP
------------------------------------------------------------------------------

The optimization will be done in redundant internal coordinates (2022)
Making redundant internal coordinates   ...  (2022 redundants) done
Evaluating the initial hessian          ...  (Almloef) done
Evaluating the coordinates              ...  done
Calculating the B-matrix                .... done
Calculating the G-matrix                .... done
Diagonalizing the G-matrix              .... done
The first mode is                       ....    1
The number of degrees of freedom        ....    6

    -----------------------------------------------------------------
                    Redundant Internal Coordinates


    -----------------------------------------------------------------
         Definition                    Initial Value    Approx d2E/dq
    -----------------------------------------------------------------
      1. B(H   1,N   0)                  1.0116         0.430236   
      2. B(H   2,N   0)                  1.0116         0.430236   
      3. B(H   3,N   0)                  1.0116         0.430236   
      4. A(H   1,N   0,H   3)          106.8430         0.302702   
      5. A(H   2,N   0,H   3)          106.8430         0.302702   
      6. A(H   1,N   0,H   2)          106.8430         0.302702   
      7. I(H   1,H   3,H   2,N   0)     60.9075         0.003864   
    -----------------------------------------------------------------

Number of atoms                         .... 4
Number of degrees of freedom            .... 7


         *************************************************************
         *                GEOMETRY OPTIMIZATION CYCLE   1            *
         *************************************************************
---------------------------------
CARTESIAN COORDINATES (ANGSTROEM)
---------------------------------
  N      0.000000    0.000000    0.113615
  H      0.000000    0.937991   -0.265101
  H     -0.812324   -0.468996   -0.265101
  H      0.812324   -0.468996   -0.265101

----------------------------
CARTESIAN COORDINATES (A.U.)
----------------------------
  NO LB      ZA    FRAG     MASS         X           Y           Z
   0 N     7.0000    0    14.007    0.000000    0.000000    0.214701
   1 H     1.0000    0     1.008    0.000000    1.772546   -0.500968
   2 H     1.0000    0     1.008   -1.535070   -0.886274   -0.500968
   3 H     1.0000    0     1.008    1.535070   -0.886274   -0.500968

--------------------------------
INTERNAL COORDINATES (ANGSTROEM)
--------------------------------
 N      0   0   0     0.000000000000     0.00000000     0.00000000
 H      1   0   0     1.011559649619     0.00000000     0.00000000
 H      1   2   0     1.011559853715   106.84302597     0.00000000
 H      1   2   3     1.011559853715   106.84302597   114.07643751

---------------------------
INTERNAL COORDINATES (A.U.)
---------------------------
 N      0   0   0     0.000000000000     0.00000000     0.00000000
 H      1   0   0     1.911570705905     0.00000000     0.00000000
 H      1   2   0     1.911571091591   106.84302597     0.00000000
 H      1   2   3     1.911571091591   106.84302597   114.07643751

---------------------
BASIS SET INFORMATION
---------------------
There are 2 groups of distinct atoms

 Group   1 Type N   : 11s6p2d1f contracted to 5s3p2d1f pattern {62111/411/11/1}
 Group   2 Type H   : 5s2p1d contracted to 3s2p1d pattern {311/11/1}

Atom   0N    basis set group =>   1
Atom   1H    basis set group =>   2
Atom   2H    basis set group =>   2
Atom   3H    basis set group =>   2
---------------------------------
AUXILIARY/J BASIS SET INFORMATION
---------------------------------
There are 2 groups of distinct atoms

 Group   1 Type N   : 12s5p4d2f1g contracted to 6s4p3d1f1g pattern {711111/2111/211/2/1}
 Group   2 Type H   : 5s2p1d contracted to 3s1p1d pattern {311/2/1}

Atom   0N    basis set group =>   1
Atom   1H    basis set group =>   2
Atom   2H    basis set group =>   2
Atom   3H    basis set group =>   2
------------------------------------------------------------------------------
                             ORCA STARTUP CALCULATIONS
                           -- RI-GTO INTEGRALS CHOSEN --
------------------------------------------------------------------------------
------------------------------------------------------------------------------
                   ___                                                        
                  /   \      - P O W E R E D   B Y -                         
                 /     \                                                     
                 |  |  |   _    _      __       _____    __    __             
                 |  |  |  | |  | |    /  \     |  _  \  |  |  /  |          
                  \  \/   | |  | |   /    \    | | | |  |  | /  /          
                 / \  \   | |__| |  /  /\  \   | |_| |  |  |/  /          
                |  |  |   |  __  | /  /__\  \  |    /   |      \           
                |  |  |   | |  | | |   __   |  |    \   |  |\   \          
                \     /   | |  | | |  |  |  |  | |\  \  |  | \   \       
                 \___/    |_|  |_| |__|  |__|  |_| \__\ |__|  \__/        
                                                                              
                      - O R C A' S   B I G   F R I E N D -                    
                                      &                                       
                       - I N T E G R A L  F E E D E R -                       
                                                                              
 v1 FN, 2020, v2 2021, v3 2022-2024                                           
------------------------------------------------------------------------------


----------------------
SHARK INTEGRAL PACKAGE
----------------------

Number of atoms                             ...      4
Number of basis functions                   ...     73
Number of shells                            ...     29
Maximum angular momentum                    ...      3
Integral batch strategy                     ... SHARK/LIBINT Hybrid
RI-J (if used) integral strategy            ... SPLIT-RIJ (Revised 2003 algorithm where possible)
Printlevel                                  ...      1
Contraction scheme used                     ... SEGMENTED contraction
Prescreening option                         ... SCHWARTZ
   Thresh                                   ... 1.000e-12
   Tcut                                     ... 1.000e-14
   Tpresel                                  ... 1.000e-14 
Coulomb Range Separation                    ... NOT USED
Exchange Range Separation                   ... NOT USED
Multipole approximations                    ... NOT USED
Finite Nucleus Model                        ... NOT USED
CABS basis                                  ... NOT available
Auxiliary Coulomb fitting basis             ... AVAILABLE
   # of basis functions in Aux-J            ...     82
   # of shells in Aux-J                     ...     30
   Maximum angular momentum in Aux-J        ...      4
Auxiliary J/K fitting basis                 ... NOT available
Auxiliary Correlation fitting basis         ... NOT available
Auxiliary 'external' fitting basis          ... NOT available

Checking pre-screening integrals            ... done (  0.0 sec) Dimension = 29
Check shell pair data                       ... done (  0.0 sec)
Shell pair information
Shell pair cut-off parameter TPreSel        ...   1.0e-14
Total number of shell pairs                 ...       435
Shell pairs after pre-screening             ...       435
Total number of primitive shell pairs       ...      1021
Primitive shell pairs kept                  ...       991
          la=0 lb=0:    105 shell pairs
          la=1 lb=0:    126 shell pairs
          la=1 lb=1:     45 shell pairs
          la=2 lb=0:     70 shell pairs
          la=2 lb=1:     45 shell pairs
          la=2 lb=2:     15 shell pairs
          la=3 lb=0:     14 shell pairs
          la=3 lb=1:      9 shell pairs
          la=3 lb=2:      5 shell pairs
          la=3 lb=3:      1 shell pairs

Calculating one electron integrals          ... done (  0.0 sec)
Calculating RI/J V-Matrix + Cholesky decomp.... done (  0.0 sec)
Calculating Nuclear repulsion               ... done (  0.0 sec) ENN=     11.962882715546 Eh

Diagonalization of the overlap matrix:
Smallest eigenvalue                        ... 8.866e-04
Time for diagonalization                   ...    0.007 sec
Threshold for overlap eigenvalues          ... 1.000e-07
Number of eigenvalues below threshold      ... 0
Time for construction of square roots      ...    0.001 sec
Total time needed                          ...    0.008 sec

-------------------
DFT GRID GENERATION
-------------------

General Integration Accuracy     IntAcc      ... 4.388
Radial Grid Type                 RadialGrid  ... OptM3 with GC (2021)
Angular Grid (max. ang.)         AngularGrid ... 4 (Lebedev-302)
Angular grid pruning method      GridPruning ... 4 (adaptive)
Weight generation scheme         WeightScheme... mBecke (2022)
Basis function cutoff            BFCut       ... 1.0000e-12
Integration weight cutoff        WCut        ... 1.0000e-14
Partially contracted basis set               ... off
Rotationally invariant grid construction     ... off
Angular grids for H and He will be reduced by one unit

Total number of grid points                  ...    16020
Total number of batches                      ...      252
Average number of points per batch           ...       63
Average number of grid points per atom       ...     4005

--------------------
COSX GRID GENERATION
--------------------

GRIDX 1
-------
General Integration Accuracy     IntAcc      ... 3.816
Radial Grid Type                 RadialGrid  ... OptM3 with GC (2021)
Angular Grid (max. ang.)         AngularGrid ... 1 (Lebedev-50)
Angular grid pruning method      GridPruning ... 4 (adaptive)
Weight generation scheme         WeightScheme... mBecke (2022)
Basis function cutoff            BFCut       ... 1.0000e-12
Integration weight cutoff        WCut        ... 1.0000e-14
Partially contracted basis set               ... on
Rotationally invariant grid construction     ... off
Angular grids for H and He will be reduced by one unit

Total number of grid points                  ...     2101
Total number of batches                      ...       19
Average number of points per batch           ...      110
Average number of grid points per atom       ...      525
UseSFitting                                  ... on

GRIDX 2
-------
General Integration Accuracy     IntAcc      ... 4.020
Radial Grid Type                 RadialGrid  ... OptM3 with GC (2021)
Angular Grid (max. ang.)         AngularGrid ... 2 (Lebedev-110)
Angular grid pruning method      GridPruning ... 4 (adaptive)
Weight generation scheme         WeightScheme... mBecke (2022)
Basis function cutoff            BFCut       ... 1.0000e-12
Integration weight cutoff        WCut        ... 1.0000e-14
Partially contracted basis set               ... on
Rotationally invariant grid construction     ... off
Angular grids for H and He will be reduced by one unit

Total number of grid points                  ...     4304
Total number of batches                      ...       36
Average number of points per batch           ...      119
Average number of grid points per atom       ...     1076
UseSFitting                                  ... on

GRIDX 3
-------
General Integration Accuracy     IntAcc      ... 4.338
Radial Grid Type                 RadialGrid  ... OptM3 with GC (2021)
Angular Grid (max. ang.)         AngularGrid ... 3 (Lebedev-194)
Angular grid pruning method      GridPruning ... 4 (adaptive)
Weight generation scheme         WeightScheme... mBecke (2022)
Basis function cutoff            BFCut       ... 1.0000e-12
Integration weight cutoff        WCut        ... 1.0000e-14
Partially contracted basis set               ... on
Rotationally invariant grid construction     ... off
Angular grids for H and He will be reduced by one unit

Total number of grid points                  ...     9470
Total number of batches                      ...       75
Average number of points per batch           ...      126
Average number of grid points per atom       ...     2368
UseSFitting                                  ... on
Initializing property integral containers    ... done (  0.0 sec)

SHARK setup successfully completed in   0.2 seconds

Maximum memory used throughout the entire STARTUP-calculation: 13.7 MB
-------------------------------------------------------------------------------
                                 ORCA GUESS
                   Start orbitals & Density for SCF / CASSCF
-------------------------------------------------------------------------------

------------
SCF SETTINGS
------------
Hamiltonian:
 Density Functional     Method          .... DFT(GTOs)
 Exchange Functional    Exchange        .... B88
   X-Alpha parameter    XAlpha          ....  0.666667
   Becke's b parameter  XBeta           ....  0.004200
 Correlation Functional Correlation     .... LYP
 LDA part of GGA corr.  LDAOpt          .... VWN-5
 Gradients option       PostSCFGGA      .... off
 Hybrid DFT is turned on
   Fraction HF Exchange ScalHFX         ....  0.200000
   Scaling of DF-GGA-X  ScalDFX         ....  0.720000
   Scaling of DF-GGA-C  ScalDFC         ....  0.810000
   Scaling of DF-LDA-C  ScalLDAC        ....  1.000000
   Perturbative correction              ....  0.000000
   NL short-range parameter             ....  4.800000
 RI-approximation to the Coulomb term is turned on
   Number of AuxJ basis functions       .... 82
   RIJ-COSX (HFX calculated with COS-X)).... on


General Settings:
 Integral files         IntName         .... NH3_Freq-B3LYP
 Hartree-Fock type      HFTyp           .... RHF
 Total Charge           Charge          ....    0
 Multiplicity           Mult            ....    1
 Number of Electrons    NEL             ....   10
 Basis Dimension        Dim             ....   73
 Nuclear Repulsion      ENuc            ....     11.9628827155 Eh

Convergence Acceleration:
 AO-DIIS                CNVDIIS         .... on
   Start iteration      DIISMaxIt       ....    12
   Startup error        DIISStart       ....  0.200000
   # of expansion vecs  DIISMaxEq       ....     5
   Bias factor          DIISBfac        ....   1.050
   Max. coefficient     DIISMaxC        ....  10.000
 MO-DIIS                CNVKDIIS        .... off
 Trust-Rad. Augm. Hess. CNVTRAH         .... auto
   Auto Start mean grad. ratio tolernc. ....  1.125000
   Auto Start start iteration           ....    50
   Auto Start num. interpolation iter.  ....    10
   Max. Number of Micro iterations      ....    24
   Max. Number of Macro iterations      .... Maxiter - #DIIS iter
   Number of Davidson start vectors     ....     2
   Converg. threshold    (grad. norm)   ....   2.000e-06
   Grad. Scal. Fac. for Micro threshold ....   0.100
   Minimum threshold for Micro iter.    ....   1.000e-02
   NR start threshold (gradient norm)   ....   1.000e-04
   Initial trust radius                 ....   0.400
   Minimum AH scaling param. (alpha)    ....   1.000
   Maximum AH scaling param. (alpha)    .... 1000.000
   Quad. conv. algorithm                .... NR
   White noise on init. David. guess    .... on
   Maximum white noise                  ....   0.010
   Pseudo random numbers                .... off
   Inactive MOs                         .... canonical
   Orbital update algorithm             .... Taylor
   Preconditioner                       .... Diag
   Full preconditioner red. dimension   ....   250
 SOSCF                  CNVSOSCF        .... on
   Start iteration      SOSCFMaxIt      ....   150
   Startup grad/error   SOSCFStart      ....  0.003300
   Hessian update       SOSCFHessUp     .... L-BFGS
 Level Shifting         CNVShift        .... on
   Level shift para.    LevelShift      ....    0.2500
   Turn off err/grad.   ShiftErr        ....    0.0010
 Zerner damping         CNVZerner       .... off
 Static damping         CNVDamp         .... on
   Fraction old density DampFac         ....    0.7000
   Max. Damping (<1)    DampMax         ....    0.9800
   Min. Damping (>=0)   DampMin         ....    0.0000
   Turn off err/grad.   DampErr         ....    0.1000

SCF Procedure:
 Maximum # iterations   MaxIter         ....   400
 SCF integral mode      SCFMode         .... Direct
   Integral package                     .... SHARK and LIBINT hybrid scheme
 Reset frequency        DirectResetFreq ....    20
 Integral Threshold     Thresh          ....  1.000e-12 Eh
 Primitive CutOff       TCut            ....  1.000e-14 Eh

Convergence Tolerance:
 Convergence Check Mode ConvCheckMode   .... Total+1el-Energy
 Convergence forced     ConvForced      .... 0
 Energy Change          TolE            ....  1.000e-09 Eh
 1-El. energy change                    ....  1.000e-06 Eh
 Orbital Gradient       TolG            ....  2.000e-06
 Orbital Rotation angle TolX            ....  2.000e-06
 DIIS Error             TolErr          ....  1.000e-08

------------------------------
INITIAL GUESS: MODEL POTENTIAL
------------------------------
Loading Hartree-Fock densities                     ... done
Calculating cut-offs                               ... done
Initializing the effective Hamiltonian             ... done
Setting up the integral package (SHARK)            ... done
Starting the Coulomb interaction                   ... done (   0.0 sec)
Making the grid                                    ... done (   0.0 sec)
Mapping shells                                     ... done
Starting the XC term evaluation                    ... done (   0.0 sec)
  promolecular density results
     # of electrons  =      9.997943079
     EX              =     -7.450425675
     EC              =     -0.311664039
     EX+EC           =     -7.762089714
Transforming the Hamiltonian                       ... done (   0.0 sec)
Diagonalizing the Hamiltonian                      ... done (   0.0 sec)
Back transforming the eigenvectors                 ... done (   0.0 sec)
Now organizing SCF variables                       ... done
                      ------------------
                      INITIAL GUESS DONE (   0.1 sec)
                      ------------------
             **** ENERGY FILE WAS UPDATED (NH3_Freq-B3LYP.en.tmp) ****
Finished Guess after   0.2 sec
Maximum memory used throughout the entire GUESS-calculation: 7.6 MB

-------------------------------------------------------------------------------------------
                                      ORCA LEAN-SCF
                              memory conserving SCF solver
-------------------------------------------------------------------------------------------

----------------------------------------D-I-I-S--------------------------------------------
Iteration    Energy (Eh)           Delta-E    RMSDP     MaxDP     DIISErr   Damp  Time(sec)
-------------------------------------------------------------------------------------------
               ***  Starting incremental Fock matrix formation  ***
    1    -56.4218801121763676     0.00e+00  3.61e-03  7.17e-02  3.60e-01  0.700   0.3
    2    -56.4875030266653795    -6.56e-02  2.40e-03  4.94e-02  1.57e-01  0.700   0.2
                               ***Turning on AO-DIIS***
    3    -56.5088878766327412    -2.14e-02  7.55e-04  1.16e-02  3.47e-02  0.700   0.2
    4    -56.5218869873822172    -1.30e-02  8.69e-04  1.30e-02  9.48e-03  0.000   0.2
    5    -56.5520366466880802    -3.01e-02  3.88e-04  8.02e-03  1.50e-02  0.000   0.2
                              *** Initializing SOSCF ***
---------------------------------------S-O-S-C-F--------------------------------------
Iteration    Energy (Eh)           Delta-E    RMSDP     MaxDP     MaxGrad    Time(sec)
--------------------------------------------------------------------------------------
    6    -56.5522458325702218    -2.09e-04  1.15e-04  2.06e-03  3.04e-03     0.2
               *** Restarting incremental Fock matrix formation ***
    7    -56.5522743883931867    -2.86e-05  5.80e-05  8.82e-04  2.92e-04     0.2
    8    -56.5522746902010169    -3.02e-07  1.61e-05  2.82e-04  2.28e-04     0.2
    9    -56.5522750022912533    -3.12e-07  9.51e-06  1.24e-04  4.55e-05     0.2
   10    -56.5522750215828438    -1.93e-08  1.25e-06  1.72e-05  5.29e-06     0.2
   11    -56.5522750218986232    -3.16e-10  5.91e-08  8.80e-07  4.44e-07     0.2
                 **** Energy Check signals convergence ****

               *****************************************************
               *                     SUCCESS                       *
               *           SCF CONVERGED AFTER  11 CYCLES          *
               *****************************************************

Recomputing exchange energy using gridx3       ... done (    0.241 sec)
Old exchange energy                            :     -1.532883825 Eh
New exchange energy                            :     -1.532888308 Eh
Exchange energy change after final integration :     -0.000004482 Eh
Total energy after final integration           :    -56.552279504 Eh
             **** ENERGY FILE WAS UPDATED (NH3_Freq-B3LYP.en.tmp) ****

----------------
TOTAL SCF ENERGY
----------------

Total Energy       :        -56.55227950421524 Eh           -1538.86576 eV

Components:
Nuclear Repulsion  :         11.96288271554579 Eh             325.52659 eV
Electronic Energy  :        -68.51515773744441 Eh           -1864.39223 eV
One Electron Energy:        -99.73677082681623 Eh           -2713.97551 eV
Two Electron Energy:         31.22161308937182 Eh             849.58328 eV

Virial components:
Potential Energy   :       -112.86609359667619 Eh           -3071.24255 eV
Kinetic Energy     :         56.31381409246095 Eh            1532.37679 eV
Virial Ratio       :          2.00423458108099

DFT components:
N(Alpha)           :        4.999998452099 electrons
N(Beta)            :        4.999998452099 electrons
N(Total)           :        9.999996904197 electrons
E(X)               :       -6.092539702902 Eh       
E(C)               :       -0.376848897642 Eh       
E(XC)              :       -6.469388600544 Eh       

---------------
SCF CONVERGENCE
---------------

  Last Energy change         ...    3.1578e-10  Tolerance :   1.0000e-09
  Last MAX-Density change    ...    8.7963e-07  Tolerance :   1.0000e-08
  Last RMS-Density change    ...    5.9118e-08  Tolerance :   1.0000e-09
  Last DIIS Error            ...    3.0427e-03  Tolerance :   1.0000e-08
  Last Orbital Gradient      ...    4.4353e-07  Tolerance :   2.0000e-06
  Last Orbital Rotation      ...    4.3662e-07  Tolerance :   2.0000e-06


----------------
ORBITAL ENERGIES
----------------

  NO   OCC          E(Eh)            E(eV) 
   0   2.0000     -14.288303      -388.8045 
   1   2.0000      -0.850657       -23.1476 
   2   2.0000      -0.460345       -12.5266 
   3   2.0000      -0.460342       -12.5265 
   4   2.0000      -0.266516        -7.2523 
   5   0.0000       0.025659         0.6982 
   6   0.0000       0.109850         2.9892 
   7   0.0000       0.109856         2.9893 
   8   0.0000       0.299541         8.1509 
   9   0.0000       0.299547         8.1511 
  10   0.0000       0.340757         9.2725 
  11   0.0000       0.431787        11.7495 
  12   0.0000       0.482090        13.1183 
  13   0.0000       0.491658        13.3787 
  14   0.0000       0.491658        13.3787 
  15   0.0000       0.569609        15.4998 
*Only the first 10 virtual orbitals were printed.

                    ********************************
                    * MULLIKEN POPULATION ANALYSIS *
                    ********************************

-----------------------
MULLIKEN ATOMIC CHARGES
-----------------------
   0 N :   -0.425575
   1 H :    0.141833
   2 H :    0.141871
   3 H :    0.141871
Sum of atomic charges:   -0.0000000

--------------------------------
MULLIKEN REDUCED ORBITAL CHARGES
--------------------------------
  0 N s       :     3.508858  s :     3.508858
      pz      :     1.741340  p :     3.900380
      px      :     1.079492
      py      :     1.079548
      dz2     :     0.001368  d :     0.015899
      dxz     :     0.005605
      dyz     :     0.005609
      dx2y2   :     0.001657
      dxy     :     0.001660
      f0      :     0.000344  f :     0.000437
      f+1     :     0.000063
      f-1     :     0.000063
      f+2     :    -0.000101
      f-2     :    -0.000101
      f+3     :     0.000000
      f-3     :     0.000168

  1 H s       :     0.786221  s :     0.786221
      pz      :     0.032410  p :     0.067017
      px      :     0.016425
      py      :     0.018182
      dz2     :     0.000690  d :     0.004929
      dxz     :     0.000084
      dyz     :     0.002117
      dx2y2   :     0.000740
      dxy     :     0.001298

  2 H s       :     0.786191  s :     0.786191
      pz      :     0.032404  p :     0.067008
      px      :     0.017741
      py      :     0.016863
      dz2     :     0.000691  d :     0.004930
      dxz     :     0.001608
      dyz     :     0.000592
      dx2y2   :     0.001159
      dxy     :     0.000880

  3 H s       :     0.786192  s :     0.786192
      pz      :     0.032404  p :     0.067008
      px      :     0.017741
      py      :     0.016863
      dz2     :     0.000691  d :     0.004929
      dxz     :     0.001608
      dyz     :     0.000592
      dx2y2   :     0.001158
      dxy     :     0.000880



                     *******************************
                     * LOEWDIN POPULATION ANALYSIS *
                     *******************************

----------------------
LOEWDIN ATOMIC CHARGES
----------------------
   0 N :    0.181101
   1 H :   -0.060366
   2 H :   -0.060367
   3 H :   -0.060367

-------------------------------
LOEWDIN REDUCED ORBITAL CHARGES
-------------------------------
  0 N s       :     2.952608  s :     2.952608
      pz      :     1.519138  p :     3.771882
      px      :     1.126366
      py      :     1.126378
      dz2     :     0.004611  d :     0.086395
      dxz     :     0.015172
      dyz     :     0.015173
      dx2y2   :     0.025719
      dxy     :     0.025720
      f0      :     0.000581  f :     0.008014
      f+1     :     0.000003
      f-1     :     0.000003
      f+2     :     0.002580
      f-2     :     0.002580
      f+3     :     0.000000
      f-3     :     0.002266

  1 H s       :     0.748089  s :     0.748089
      pz      :     0.109770  p :     0.254926
      px      :     0.052419
      py      :     0.092737
      dz2     :     0.008579  d :     0.057351
      dxz     :     0.001655
      dyz     :     0.020348
      dx2y2   :     0.011755
      dxy     :     0.015014

  2 H s       :     0.748088  s :     0.748088
      pz      :     0.109772  p :     0.254929
      px      :     0.082659
      py      :     0.062498
      dz2     :     0.008579  d :     0.057351
      dxz     :     0.015674
      dyz     :     0.006328
      dx2y2   :     0.014200
      dxy     :     0.012570

  3 H s       :     0.748088  s :     0.748088
      pz      :     0.109772  p :     0.254929
      px      :     0.082659
      py      :     0.062498
      dz2     :     0.008579  d :     0.057351
      dxz     :     0.015674
      dyz     :     0.006328
      dx2y2   :     0.014200
      dxy     :     0.012570



                      *****************************
                      * MAYER POPULATION ANALYSIS *
                      *****************************

  NA   - Mulliken gross atomic population
  ZA   - Total nuclear charge
  QA   - Mulliken gross atomic charge
  VA   - Mayer's total valence
  BVA  - Mayer's bonded valence
  FA   - Mayer's free valence

  ATOM       NA         ZA         QA         VA         BVA        FA
  0 N      7.4256     7.0000    -0.4256     3.0181     3.0181    -0.0000
  1 H      0.8582     1.0000     0.1418     1.0286     1.0286    -0.0000
  2 H      0.8581     1.0000     0.1419     1.0286     1.0286    -0.0000
  3 H      0.8581     1.0000     0.1419     1.0286     1.0286    -0.0000

  Mayer bond orders larger than 0.100000
B(  0-N ,  1-H ) :   1.0061 B(  0-N ,  2-H ) :   1.0060 B(  0-N ,  3-H ) :   1.0060 


-------
TIMINGS
-------

Total SCF time: 0 days 0 hours 0 min 2 sec 

Total time                  ....       2.702 sec
Sum of individual times     ....       2.656 sec  ( 98.3%)

SCF preparation             ....       0.073 sec  (  2.7%)
Fock matrix formation       ....       2.024 sec  ( 74.9%)
  Startup                   ....       0.016 sec  (  0.8% of F)
  Split-RI-J                ....       0.113 sec  (  5.6% of F)
  Chain of spheres X        ....       1.263 sec  ( 62.4% of F)
  XC integration            ....       0.602 sec  ( 29.7% of F)
    Basis function eval.    ....       0.181 sec  ( 30.1% of XC)
    Density eval.           ....       0.096 sec  ( 15.9% of XC)
    XC-Functional eval.     ....       0.031 sec  (  5.1% of XC)
    XC-Potential eval.      ....       0.238 sec  ( 39.5% of XC)
Diagonalization             ....       0.000 sec  (  0.0%)
Density matrix formation    ....       0.178 sec  (  6.6%)
Total Energy calculation    ....       0.072 sec  (  2.7%)
Population analysis         ....       0.037 sec  (  1.4%)
Orbital Transformation      ....       0.019 sec  (  0.7%)
Orbital Orthonormalization  ....       0.000 sec  (  0.0%)
DIIS solution               ....       0.171 sec  (  6.3%)
SOSCF solution              ....       0.082 sec  (  3.0%)
Finished LeanSCF after   2.7 sec

Maximum memory used throughout the entire LEANSCF-calculation: 7.2 MB

-------------------------   --------------------
FINAL SINGLE POINT ENERGY       -56.552279504215
-------------------------   --------------------

------------------------------------------------------------------------------
                         ORCA SCF GRADIENT CALCULATION
------------------------------------------------------------------------------

Nuc. rep. gradient        (SHARK) ... done (  0.0 sec)
HCore & Overlap gradient  (SHARK) ... done (  0.0 sec)
Split-RIJ-J gradient      (SHARK) ... done (  0.1 sec)
COSX-gradient                     ... done (  1.3 sec)
XC gradient                       ... done (  0.3 sec)

------------------
CARTESIAN GRADIENT
------------------

   1   N   :    0.000000003   -0.000012577   -0.000785450
   2   H   :    0.000000000   -0.001559880    0.000262085
   3   H   :    0.001356358    0.000786230    0.000261680
   4   H   :   -0.001356362    0.000786227    0.000261685

Difference to translation invariance:
           :   -0.0000000000   -0.0000000000    0.0000000000

Difference to rotation invariance:
           :    0.0000097143   -0.0000000048   -0.0000000081

Norm of the Cartesian gradient     ...    0.0028586179
RMS gradient                       ...    0.0008252119
MAX gradient                       ...    0.0015598804

-------
TIMINGS
-------

Total SCF gradient time     ....        1.683 sec

One electron gradient       ....       0.012 sec  (  0.7%)
RI-J Coulomb gradient       ....       0.084 sec  (  5.0%)
COSX gradient               ....       1.302 sec  ( 77.4%)
XC gradient                 ....       0.281 sec  ( 16.7%)

Maximum memory used throughout the entire SCFGRAD-calculation: 9.7 MB
------------------------------------------------------------------------------
                         ORCA GEOMETRY RELAXATION STEP
------------------------------------------------------------------------------

Reading the OPT-File                    .... done
Getting information on internals        .... done
Copying old internal coords+grads       .... done
Making the new internal coordinates     .... (2022 redundants) done
Validating the new internal coordinates .... (2022 redundants) done
Calculating the B-matrix                .... done
Calculating the G,G- and P matrices     .... done
Transforming gradient to internals      .... done
Projecting the internal gradient        .... done
Number of atoms                         ....   4
Number of internal coordinates          ....   7
Current Energy                          ....   -56.552279504 Eh
Current gradient norm                   ....     0.002858618 Eh/bohr
Maximum allowed component of the step   ....  0.300
Current trust radius                    ....  0.300
Evaluating the initial hessian          ....  (Almloef) done
Projecting the Hessian                  .... done
Forming the augmented Hessian           .... done
Diagonalizing the augmented Hessian     .... done
Last element of RFO vector              ....  0.999965545
Lowest eigenvalues of augmented Hessian:
 -0.000020265  0.109477740  0.302702146  0.302702492  0.430235541
Length of the computed step             ....  0.008301415
The final length of the internal step   ....  0.008301415
Converting the step to Cartesian space:
 Initial RMS(Int)=    0.0031376400
Transforming coordinates:
 Iter   0:  RMS(Cart)=    0.0023558424 RMS(Int)=    0.0031364229
done
Storing new coordinates                 .... done

                                .--------------------.
          ----------------------|Geometry convergence|-------------------------
          Item                value                   Tolerance       Converged
          ---------------------------------------------------------------------
          RMS gradient        0.0010461357            0.0000100000      NO
          MAX gradient        0.0015521834            0.0001000000      NO
          RMS step            0.0031376400            0.0000100000      NO
          MAX step            0.0043124065            0.0001000000      NO
          ........................................................
          Max(Bonds)      0.0019      Max(Angles)    0.11
          Max(Dihed)        0.00      Max(Improp)    0.25
          ---------------------------------------------------------------------

The optimization has not yet converged - more geometry cycles are needed


    ---------------------------------------------------------------------------
                         Redundant Internal Coordinates
                            (Angstroem and degrees)

        Definition                    Value    dE/dq     Step     New-Value
    ----------------------------------------------------------------------------
     1. B(H   1,N   0)                1.0116 -0.001544  0.0019    1.0135   
     2. B(H   2,N   0)                1.0116 -0.001552  0.0019    1.0135   
     3. B(H   3,N   0)                1.0116 -0.001552  0.0019    1.0135   
     4. A(H   1,N   0,H   3)          106.84 -0.000171    0.11    106.95   
     5. A(H   2,N   0,H   3)          106.84 -0.000422    0.11    106.96   
     6. A(H   1,N   0,H   2)          106.84 -0.000171    0.11    106.95   
     7. I(H   1,H   3,H   2,N   0)     60.91  0.000472   -0.25     60.66   
    ----------------------------------------------------------------------------

Geometry step timings:
Preparation and reading OPT file:      0.000 s ( 0.000 %)
Internal coordinates            :      0.000 s ( 0.000 %)
B/P matrices and projection     :      0.001 s (50.000 %)
Hessian update/contruction      :      0.001 s (50.000 %)
Making the step                 :      0.000 s ( 0.000 %)
Converting the step to Cartesian:      0.000 s ( 0.000 %)
Storing new data                :      0.000 s ( 0.000 %)
Checking convergence            :      0.000 s ( 0.000 %)
Final printing                  :      0.000 s ( 0.000 %)
Total time                      :      0.002 s

Time for energy+gradient        :      5.334 s
Time for complete geometry iter :      5.420 s

         *************************************************************
         *                GEOMETRY OPTIMIZATION CYCLE   2            *
         *************************************************************
---------------------------------
CARTESIAN COORDINATES (ANGSTROEM)
---------------------------------
  N     -0.000000    0.000001    0.112886
  H      0.000000    0.940430   -0.264858
  H     -0.814448   -0.470216   -0.264858
  H      0.814448   -0.470216   -0.264858

----------------------------
CARTESIAN COORDINATES (A.U.)
----------------------------
  NO LB      ZA    FRAG     MASS         X           Y           Z
   0 N     7.0000    0    14.007   -0.000000    0.000001    0.213323
   1 H     1.0000    0     1.008    0.000000    1.777155   -0.500509
   2 H     1.0000    0     1.008   -1.539083   -0.888579   -0.500509
   3 H     1.0000    0     1.008    1.539083   -0.888579   -0.500509

--------------------------------
INTERNAL COORDINATES (ANGSTROEM)
--------------------------------
 N      0   0   0     0.000000000000     0.00000000     0.00000000
 H      1   0   0     1.013458149886     0.00000000     0.00000000
 H      1   2   0     1.013468900740   106.95437988     0.00000000
 H      1   2   3     1.013468904233   106.95437934   114.30950039

---------------------------
INTERNAL COORDINATES (A.U.)
---------------------------
 N      0   0   0     0.000000000000     0.00000000     0.00000000
 H      1   0   0     1.915158351475     0.00000000     0.00000000
 H      1   2   0     1.915178667644   106.95437988     0.00000000
 H      1   2   3     1.915178674245   106.95437934   114.30950039

------------------------------------------------------------------------------
                   ___                                                        
                  /   \      - P O W E R E D   B Y -                         
                 /     \                                                     
                 |  |  |   _    _      __       _____    __    __             
                 |  |  |  | |  | |    /  \     |  _  \  |  |  /  |          
                  \  \/   | |  | |   /    \    | | | |  |  | /  /          
                 / \  \   | |__| |  /  /\  \   | |_| |  |  |/  /          
                |  |  |   |  __  | /  /__\  \  |    /   |      \           
                |  |  |   | |  | | |   __   |  |    \   |  |\   \          
                \     /   | |  | | |  |  |  |  | |\  \  |  | \   \       
                 \___/    |_|  |_| |__|  |__|  |_| \__\ |__|  \__/        
                                                                              
                      - O R C A' S   B I G   F R I E N D -                    
                                      &                                       
                       - I N T E G R A L  F E E D E R -                       
                                                                              
 v1 FN, 2020, v2 2021, v3 2022-2024                                           
------------------------------------------------------------------------------


----------------------
SHARK INTEGRAL PACKAGE
----------------------

Number of atoms                             ...      4
Number of basis functions                   ...     73
Number of shells                            ...     29
Maximum angular momentum                    ...      3
Integral batch strategy                     ... SHARK/LIBINT Hybrid
RI-J (if used) integral strategy            ... SPLIT-RIJ (Revised 2003 algorithm where possible)
Printlevel                                  ...      1
Contraction scheme used                     ... SEGMENTED contraction
Prescreening option                         ... SCHWARTZ
   Thresh                                   ... 1.000e-12
   Tcut                                     ... 1.000e-14
   Tpresel                                  ... 1.000e-14 
Coulomb Range Separation                    ... NOT USED
Exchange Range Separation                   ... NOT USED
Multipole approximations                    ... NOT USED
Finite Nucleus Model                        ... NOT USED
CABS basis                                  ... NOT available
Auxiliary Coulomb fitting basis             ... AVAILABLE
   # of basis functions in Aux-J            ...     82
   # of shells in Aux-J                     ...     30
   Maximum angular momentum in Aux-J        ...      4
Auxiliary J/K fitting basis                 ... NOT available
Auxiliary Correlation fitting basis         ... NOT available
Auxiliary 'external' fitting basis          ... NOT available

Checking pre-screening integrals            ... done (  0.0 sec) Dimension = 29
Check shell pair data                       ... done (  0.0 sec)
Shell pair information
Shell pair cut-off parameter TPreSel        ...   1.0e-14
Total number of shell pairs                 ...       435
Shell pairs after pre-screening             ...       435
Total number of primitive shell pairs       ...      1021
Primitive shell pairs kept                  ...       991
          la=0 lb=0:    105 shell pairs
          la=1 lb=0:    126 shell pairs
          la=1 lb=1:     45 shell pairs
          la=2 lb=0:     70 shell pairs
          la=2 lb=1:     45 shell pairs
          la=2 lb=2:     15 shell pairs
          la=3 lb=0:     14 shell pairs
          la=3 lb=1:      9 shell pairs
          la=3 lb=2:      5 shell pairs
          la=3 lb=3:      1 shell pairs

Calculating one electron integrals          ... done (  0.0 sec)
Calculating RI/J V-Matrix + Cholesky decomp.... done (  0.0 sec)
Calculating Nuclear repulsion               ... done (  0.0 sec) ENN=     11.939685911169 Eh

Diagonalization of the overlap matrix:
Smallest eigenvalue                        ... 8.958e-04
Time for diagonalization                   ...    0.001 sec
Threshold for overlap eigenvalues          ... 1.000e-07
Number of eigenvalues below threshold      ... 0
Time for construction of square roots      ...    0.001 sec
Total time needed                          ...    0.008 sec

-------------------
DFT GRID GENERATION
-------------------

General Integration Accuracy     IntAcc      ... 4.388
Radial Grid Type                 RadialGrid  ... OptM3 with GC (2021)
Angular Grid (max. ang.)         AngularGrid ... 4 (Lebedev-302)
Angular grid pruning method      GridPruning ... 4 (adaptive)
Weight generation scheme         WeightScheme... mBecke (2022)
Basis function cutoff            BFCut       ... 1.0000e-12
Integration weight cutoff        WCut        ... 1.0000e-14
Partially contracted basis set               ... off
Rotationally invariant grid construction     ... off
Angular grids for H and He will be reduced by one unit

Total number of grid points                  ...    16020
Total number of batches                      ...      252
Average number of points per batch           ...       63
Average number of grid points per atom       ...     4005

--------------------
COSX GRID GENERATION
--------------------

GRIDX 1
-------
General Integration Accuracy     IntAcc      ... 3.816
Radial Grid Type                 RadialGrid  ... OptM3 with GC (2021)
Angular Grid (max. ang.)         AngularGrid ... 1 (Lebedev-50)
Angular grid pruning method      GridPruning ... 4 (adaptive)
Weight generation scheme         WeightScheme... mBecke (2022)
Basis function cutoff            BFCut       ... 1.0000e-12
Integration weight cutoff        WCut        ... 1.0000e-14
Partially contracted basis set               ... on
Rotationally invariant grid construction     ... off
Angular grids for H and He will be reduced by one unit

Total number of grid points                  ...     2101
Total number of batches                      ...       19
Average number of points per batch           ...      110
Average number of grid points per atom       ...      525
UseSFitting                                  ... on

GRIDX 2
-------
General Integration Accuracy     IntAcc      ... 4.020
Radial Grid Type                 RadialGrid  ... OptM3 with GC (2021)
Angular Grid (max. ang.)         AngularGrid ... 2 (Lebedev-110)
Angular grid pruning method      GridPruning ... 4 (adaptive)
Weight generation scheme         WeightScheme... mBecke (2022)
Basis function cutoff            BFCut       ... 1.0000e-12
Integration weight cutoff        WCut        ... 1.0000e-14
Partially contracted basis set               ... on
Rotationally invariant grid construction     ... off
Angular grids for H and He will be reduced by one unit

Total number of grid points                  ...     4304
Total number of batches                      ...       36
Average number of points per batch           ...      119
Average number of grid points per atom       ...     1076
UseSFitting                                  ... on

GRIDX 3
-------
General Integration Accuracy     IntAcc      ... 4.338
Radial Grid Type                 RadialGrid  ... OptM3 with GC (2021)
Angular Grid (max. ang.)         AngularGrid ... 3 (Lebedev-194)
Angular grid pruning method      GridPruning ... 4 (adaptive)
Weight generation scheme         WeightScheme... mBecke (2022)
Basis function cutoff            BFCut       ... 1.0000e-12
Integration weight cutoff        WCut        ... 1.0000e-14
Partially contracted basis set               ... on
Rotationally invariant grid construction     ... off
Angular grids for H and He will be reduced by one unit

Total number of grid points                  ...     9471
Total number of batches                      ...       75
Average number of points per batch           ...      126
Average number of grid points per atom       ...     2368
UseSFitting                                  ... on
Initializing property integral containers    ... done (  0.0 sec)

SHARK setup successfully completed in   0.2 seconds

Maximum memory used throughout the entire STARTUP-calculation: 13.8 MB
Occupation numbers will be reassigned to an Aufbau configuration
             **** ENERGY FILE WAS UPDATED (NH3_Freq-B3LYP.en.tmp) ****
Finished Guess after   0.1 sec
Maximum memory used throughout the entire GUESS-calculation: 7.7 MB
----------------------------------------D-I-I-S--------------------------------------------
Iteration    Energy (Eh)           Delta-E    RMSDP     MaxDP     DIISErr   Damp  Time(sec)
-------------------------------------------------------------------------------------------
               ***  Starting incremental Fock matrix formation  ***
                              *** Initializing SOSCF ***
---------------------------------------S-O-S-C-F--------------------------------------
Iteration    Energy (Eh)           Delta-E    RMSDP     MaxDP     MaxGrad    Time(sec)
--------------------------------------------------------------------------------------
    1    -56.5522818573653154     0.00e+00  3.96e-05  1.04e-03  7.08e-05     0.3
               *** Restarting incremental Fock matrix formation ***
    2    -56.5522840666806985    -2.21e-06  2.28e-05  4.09e-04  1.95e-04     0.2
    3    -56.5522839185344424     1.48e-07  1.18e-05  2.29e-04  2.61e-04     0.2
    4    -56.5522843208685515    -4.02e-07  1.80e-06  3.79e-05  6.38e-06     0.3
    5    -56.5522843212525146    -3.84e-10  1.52e-07  2.08e-06  2.89e-06     0.2
                 **** Energy Check signals convergence ****

               *****************************************************
               *                     SUCCESS                       *
               *           SCF CONVERGED AFTER   5 CYCLES          *
               *****************************************************

Recomputing exchange energy using gridx3       ... done (    0.290 sec)
Old exchange energy                            :     -1.532344358 Eh
New exchange energy                            :     -1.532349092 Eh
Exchange energy change after final integration :     -0.000004735 Eh
Total energy after final integration           :    -56.552289056 Eh
             **** ENERGY FILE WAS UPDATED (NH3_Freq-B3LYP.en.tmp) ****

----------------
TOTAL SCF ENERGY
----------------

Total Energy       :        -56.55228905611965 Eh           -1538.86602 eV

Components:
Nuclear Repulsion  :         11.93968591116924 Eh             324.89537 eV
Electronic Energy  :        -68.49197023242175 Eh           -1863.76126 eV
One Electron Energy:        -99.69520071462051 Eh           -2712.84433 eV
Two Electron Energy:         31.20323048219877 Eh             849.08307 eV

Virial components:
Potential Energy   :       -112.85642910059553 Eh           -3070.97956 eV
Kinetic Energy     :         56.30414004447588 Eh            1532.11354 eV
Virial Ratio       :          2.00440729600786

DFT components:
N(Alpha)           :        4.999998478960 electrons
N(Beta)            :        4.999998478960 electrons
N(Total)           :        9.999996957921 electrons
E(X)               :       -6.090632772887 Eh       
E(C)               :       -0.376746574292 Eh       
E(XC)              :       -6.467379347179 Eh       

---------------
SCF CONVERGENCE
---------------

  Last Energy change         ...    3.8396e-10  Tolerance :   1.0000e-09
  Last MAX-Density change    ...    2.0794e-06  Tolerance :   1.0000e-08
  Last RMS-Density change    ...    1.5173e-07  Tolerance :   1.0000e-09
  Last DIIS Error            ...    8.3010e-04  Tolerance :   1.0000e-08
  Last Orbital Gradient      ...    2.8907e-06  Tolerance :   2.0000e-06
  Last Orbital Rotation      ...    2.0701e-06  Tolerance :   2.0000e-06


Total SCF time: 0 days 0 hours 0 min 1 sec 
Finished LeanSCF after   1.7 sec

Maximum memory used throughout the entire LEANSCF-calculation: 7.3 MB

-------------------------   --------------------
FINAL SINGLE POINT ENERGY       -56.552289056120
-------------------------   --------------------

------------------------------------------------------------------------------
                         ORCA SCF GRADIENT CALCULATION
------------------------------------------------------------------------------

Nuc. rep. gradient        (SHARK) ... done (  0.0 sec)
HCore & Overlap gradient  (SHARK) ... done (  0.0 sec)
Split-RIJ-J gradient      (SHARK) ... done (  0.1 sec)
COSX-gradient                     ... done (  1.3 sec)
XC gradient                       ... done (  0.3 sec)

------------------
CARTESIAN GRADIENT
------------------

   1   N   :   -0.000000000   -0.000005777    0.000457224
   2   H   :    0.000000002    0.000141282   -0.000150304
   3   H   :   -0.000124962   -0.000067751   -0.000153460
   4   H   :    0.000124961   -0.000067754   -0.000153459

Difference to translation invariance:
           :    0.0000000000   -0.0000000000    0.0000000000

Difference to rotation invariance:
           :    0.0000097334   -0.0000000019   -0.0000000085

Norm of the Cartesian gradient     ...    0.0005823664
RMS gradient                       ...    0.0001681147
MAX gradient                       ...    0.0004572240

-------
TIMINGS
-------

Total SCF gradient time     ....        1.681 sec

One electron gradient       ....       0.010 sec  (  0.6%)
RI-J Coulomb gradient       ....       0.075 sec  (  4.5%)
COSX gradient               ....       1.302 sec  ( 77.5%)
XC gradient                 ....       0.293 sec  ( 17.4%)

Maximum memory used throughout the entire SCFGRAD-calculation: 9.4 MB
------------------------------------------------------------------------------
                         ORCA GEOMETRY RELAXATION STEP
------------------------------------------------------------------------------

Reading the OPT-File                    .... done
Getting information on internals        .... done
Copying old internal coords+grads       .... done
Making the new internal coordinates     .... (2022 redundants) done
Validating the new internal coordinates .... (2022 redundants) done
Calculating the B-matrix                .... done
Calculating the G,G- and P matrices     .... done
Transforming gradient to internals      .... done
Projecting the internal gradient        .... done
Number of atoms                         ....   4
Number of internal coordinates          ....   7
Current Energy                          ....   -56.552289056 Eh
Current gradient norm                   ....     0.000582366 Eh/bohr
Maximum allowed component of the step   ....  0.300
Current trust radius                    ....  0.300
Updating the Hessian (BFGS)             .... done
Forming the augmented Hessian           .... done
Diagonalizing the augmented Hessian     .... done
Last element of RFO vector              ....  0.999998766
Lowest eigenvalues of augmented Hessian:
 -0.000000437  0.100461707  0.299868591  0.302702146  0.430235541
Length of the computed step             ....  0.001571105
The final length of the internal step   ....  0.001571105
Converting the step to Cartesian space:
 Initial RMS(Int)=    0.0005938220
Transforming coordinates:
 Iter   0:  RMS(Cart)=    0.0002427189 RMS(Int)=    0.0005938428
done
Storing new coordinates                 .... done
The predicted energy change is          ....    -0.000000219
Previously predicted energy change      ....    -0.000010133
Actually observed energy change         ....    -0.000009552
Ratio of predicted to observed change   ....     0.942620131
New trust radius                        ....     0.450000000

                                .--------------------.
          ----------------------|Geometry convergence|-------------------------
          Item                value                   Tolerance       Converged
          ---------------------------------------------------------------------
          Energy change      -0.0000095519            0.0000010000      NO
          RMS gradient        0.0001397348            0.0000100000      NO
          MAX gradient        0.0001885831            0.0001000000      NO
          RMS step            0.0005938220            0.0000100000      NO
          MAX step            0.0011449890            0.0001000000      NO
          ........................................................
          Max(Bonds)      0.0002      Max(Angles)    0.03
          Max(Dihed)        0.00      Max(Improp)    0.07
          ---------------------------------------------------------------------

The optimization has not yet converged - more geometry cycles are needed


    ---------------------------------------------------------------------------
                         Redundant Internal Coordinates
                            (Angstroem and degrees)

        Definition                    Value    dE/dq     Step     New-Value
    ----------------------------------------------------------------------------
     1. B(H   1,N   0)                1.0135  0.000188 -0.0002    1.0133   
     2. B(H   2,N   0)                1.0135  0.000189 -0.0002    1.0133   
     3. B(H   3,N   0)                1.0135  0.000189 -0.0002    1.0133   
     4. A(H   1,N   0,H   3)          106.95 -0.000045    0.03    106.98   
     5. A(H   2,N   0,H   3)          106.96 -0.000104    0.03    106.98   
     6. A(H   1,N   0,H   2)          106.95 -0.000045    0.03    106.98   
     7. I(H   1,H   3,H   2,N   0)     60.66  0.000123   -0.07     60.59   
    ----------------------------------------------------------------------------

Geometry step timings:
Preparation and reading OPT file:      0.008 s (72.727 %)
Internal coordinates            :      0.000 s ( 0.000 %)
B/P matrices and projection     :      0.001 s ( 9.091 %)
Hessian update/contruction      :      0.001 s ( 9.091 %)
Making the step                 :      0.000 s ( 0.000 %)
Converting the step to Cartesian:      0.000 s ( 0.000 %)
Storing new data                :      0.000 s ( 0.000 %)
Checking convergence            :      0.000 s ( 0.000 %)
Final printing                  :      0.001 s ( 9.091 %)
Total time                      :      0.011 s

Time for energy+gradient        :      5.113 s
Time for complete geometry iter :      5.172 s

         *************************************************************
         *                GEOMETRY OPTIMIZATION CYCLE   3            *
         *************************************************************
---------------------------------
CARTESIAN COORDINATES (ANGSTROEM)
---------------------------------
  N     -0.000000    0.000003    0.112501
  H      0.000000    0.940441   -0.264729
  H     -0.814451   -0.470223   -0.264730
  H      0.814451   -0.470223   -0.264730

----------------------------
CARTESIAN COORDINATES (A.U.)
----------------------------
  NO LB      ZA    FRAG     MASS         X           Y           Z
   0 N     7.0000    0    14.007   -0.000000    0.000006    0.212596
   1 H     1.0000    0     1.008    0.000000    1.777176   -0.500265
   2 H     1.0000    0     1.008   -1.539089   -0.888592   -0.500267
   3 H     1.0000    0     1.008    1.539089   -0.888592   -0.500267

--------------------------------
INTERNAL COORDINATES (ANGSTROEM)
--------------------------------
 N      0   0   0     0.000000000000     0.00000000     0.00000000
 H      1   0   0     1.013274416069     0.00000000     0.00000000
 H      1   2   0     1.013284764018   106.98409297     0.00000000
 H      1   2   3     1.013284767326   106.98409243   114.37058753

---------------------------
INTERNAL COORDINATES (A.U.)
---------------------------
 N      0   0   0     0.000000000000     0.00000000     0.00000000
 H      1   0   0     1.914811144879     0.00000000     0.00000000
 H      1   2   0     1.914830699669   106.98409297     0.00000000
 H      1   2   3     1.914830705919   106.98409243   114.37058753

------------------------------------------------------------------------------
                   ___                                                        
                  /   \      - P O W E R E D   B Y -                         
                 /     \                                                     
                 |  |  |   _    _      __       _____    __    __             
                 |  |  |  | |  | |    /  \     |  _  \  |  |  /  |          
                  \  \/   | |  | |   /    \    | | | |  |  | /  /          
                 / \  \   | |__| |  /  /\  \   | |_| |  |  |/  /          
                |  |  |   |  __  | /  /__\  \  |    /   |      \           
                |  |  |   | |  | | |   __   |  |    \   |  |\   \          
                \     /   | |  | | |  |  |  |  | |\  \  |  | \   \       
                 \___/    |_|  |_| |__|  |__|  |_| \__\ |__|  \__/        
                                                                              
                      - O R C A' S   B I G   F R I E N D -                    
                                      &                                       
                       - I N T E G R A L  F E E D E R -                       
                                                                              
 v1 FN, 2020, v2 2021, v3 2022-2024                                           
------------------------------------------------------------------------------


----------------------
SHARK INTEGRAL PACKAGE
----------------------

Number of atoms                             ...      4
Number of basis functions                   ...     73
Number of shells                            ...     29
Maximum angular momentum                    ...      3
Integral batch strategy                     ... SHARK/LIBINT Hybrid
RI-J (if used) integral strategy            ... SPLIT-RIJ (Revised 2003 algorithm where possible)
Printlevel                                  ...      1
Contraction scheme used                     ... SEGMENTED contraction
Prescreening option                         ... SCHWARTZ
   Thresh                                   ... 1.000e-12
   Tcut                                     ... 1.000e-14
   Tpresel                                  ... 1.000e-14 
Coulomb Range Separation                    ... NOT USED
Exchange Range Separation                   ... NOT USED
Multipole approximations                    ... NOT USED
Finite Nucleus Model                        ... NOT USED
CABS basis                                  ... NOT available
Auxiliary Coulomb fitting basis             ... AVAILABLE
   # of basis functions in Aux-J            ...     82
   # of shells in Aux-J                     ...     30
   Maximum angular momentum in Aux-J        ...      4
Auxiliary J/K fitting basis                 ... NOT available
Auxiliary Correlation fitting basis         ... NOT available
Auxiliary 'external' fitting basis          ... NOT available

Checking pre-screening integrals            ... done (  0.0 sec) Dimension = 29
Check shell pair data                       ... done (  0.0 sec)
Shell pair information
Shell pair cut-off parameter TPreSel        ...   1.0e-14
Total number of shell pairs                 ...       435
Shell pairs after pre-screening             ...       435
Total number of primitive shell pairs       ...      1021
Primitive shell pairs kept                  ...       991
          la=0 lb=0:    105 shell pairs
          la=1 lb=0:    126 shell pairs
          la=1 lb=1:     45 shell pairs
          la=2 lb=0:     70 shell pairs
          la=2 lb=1:     45 shell pairs
          la=2 lb=2:     15 shell pairs
          la=3 lb=0:     14 shell pairs
          la=3 lb=1:      9 shell pairs
          la=3 lb=2:      5 shell pairs
          la=3 lb=3:      1 shell pairs

Calculating one electron integrals          ... done (  0.0 sec)
Calculating RI/J V-Matrix + Cholesky decomp.... done (  0.0 sec)
Calculating Nuclear repulsion               ... done (  0.0 sec) ENN=     11.941668967446 Eh

Diagonalization of the overlap matrix:
Smallest eigenvalue                        ... 8.950e-04
Time for diagonalization                   ...    0.001 sec
Threshold for overlap eigenvalues          ... 1.000e-07
Number of eigenvalues below threshold      ... 0
Time for construction of square roots      ...    0.001 sec
Total time needed                          ...    0.009 sec

-------------------
DFT GRID GENERATION
-------------------

General Integration Accuracy     IntAcc      ... 4.388
Radial Grid Type                 RadialGrid  ... OptM3 with GC (2021)
Angular Grid (max. ang.)         AngularGrid ... 4 (Lebedev-302)
Angular grid pruning method      GridPruning ... 4 (adaptive)
Weight generation scheme         WeightScheme... mBecke (2022)
Basis function cutoff            BFCut       ... 1.0000e-12
Integration weight cutoff        WCut        ... 1.0000e-14
Partially contracted basis set               ... off
Rotationally invariant grid construction     ... off
Angular grids for H and He will be reduced by one unit

Total number of grid points                  ...    16020
Total number of batches                      ...      252
Average number of points per batch           ...       63
Average number of grid points per atom       ...     4005

--------------------
COSX GRID GENERATION
--------------------

GRIDX 1
-------
General Integration Accuracy     IntAcc      ... 3.816
Radial Grid Type                 RadialGrid  ... OptM3 with GC (2021)
Angular Grid (max. ang.)         AngularGrid ... 1 (Lebedev-50)
Angular grid pruning method      GridPruning ... 4 (adaptive)
Weight generation scheme         WeightScheme... mBecke (2022)
Basis function cutoff            BFCut       ... 1.0000e-12
Integration weight cutoff        WCut        ... 1.0000e-14
Partially contracted basis set               ... on
Rotationally invariant grid construction     ... off
Angular grids for H and He will be reduced by one unit

Total number of grid points                  ...     2101
Total number of batches                      ...       19
Average number of points per batch           ...      110
Average number of grid points per atom       ...      525
UseSFitting                                  ... on

GRIDX 2
-------
General Integration Accuracy     IntAcc      ... 4.020
Radial Grid Type                 RadialGrid  ... OptM3 with GC (2021)
[...]
Static polarizability (Velocity)        ...  NO

Atomic electric properties:
Dipole moment                           ...  NO
Quadrupole moment                       ...  NO
Static polarizability                   ...  NO

Choice of electric origin               ... Center of mass
Position of electric origin             ...    -0.000000     0.000014     0.084849

General magnetic properties:
Magnetizability                         ...  NO

EPR properties:
g-Tensor (aka g-matrix)                 ...  NO
Zero-Field splitting spin-orbit         ...  NO
Zero-field splitting spin-spin          ...  NO
Hyperfine couplings                     ...  NO (   0 nuclei)
Quadrupole couplings                    ...  NO (   0 nuclei)
Contact density                         ...  NO (   0 nuclei)

NMR properties:
Chemical shifts                         ...  NO (   0 nuclei)
Spin-rotation constants                 ...  NO (   0 nuclei)
Spin-spin couplings                     ...  NO (   0 nuclei,    0 pairs)

Choice of magnetic origin               ... GIAO
Position of magnetic origin             ...     0.000000     0.000000     0.000000

Properties with geometric perturbations:
SCF Hessian                             ...  NO
IR spectrum                             ... YES
VCD spectrum                            ...  NO
X-ray spectroscopy properties:
SCF XES/XAS/RIXS spectra                ...  NO


-------------
DIPOLE MOMENT
-------------

Method             : SCF
Type of density    : Electron Density
Multiplicity       :   1
Irrep              :   0
Energy             :   -56.5522896304896889 Eh
Relativity type    : 
Basis              : AO
                                X                 Y                 Z
Electronic contribution:     -0.000000004       0.000040563       0.240881240
Nuclear contribution   :      0.000000003      -0.000029912      -0.870332037
                        -----------------------------------------
Total Dipole Moment    :     -0.000000001       0.000010651      -0.629450797
                        -----------------------------------------
Magnitude (a.u.)       :      0.629450797
Magnitude (Debye)      :      1.599936777



--------------------
Rotational spectrum 
--------------------
 
Rotational constants in cm-1:             9.975661             9.975471             6.299533 
Rotational constants in MHz :        299062.780967        299057.094409        188855.254563 

Dipole components along the rotational axes: 
x,y,z [a.u.] :     0.000001     0.000000    -0.629451 
x,y,z [Debye]:     0.000002     0.000000    -1.599937 

 

Dipole moment calculation done in   0.0 sec 

Maximum memory used throughout the entire PROP-calculation: 4.9 MB

----------------------------------------------------------------------------
                           ORCA NUMERICAL FREQUENCIES
----------------------------------------------------------------------------

Number of atoms                ... 4
Central differences            ... used
Number of displacements        ... 24
Numerical increment            ... 5.000e-03 bohr
IR-spectrum generation         ... on
Raman-spectrum generation      ... off
Surface Crossing Hessian       ... off

The output will be reduced. Please look at the following files:
SCF program output             ... >NH3_Freq-B3LYP.lastscf
Integral program output        ... >NH3_Freq-B3LYP.lastint
Gradient program output        ... >NH3_Freq-B3LYP.lastgrad
Dipole moment program output   ... >NH3_Freq-B3LYP.lastmom

	<< Calculating gradient on displaced geometry   1 (of  24) >>
	<< Calculating gradient on displaced geometry   2 (of  24) >>
	<< Calculating gradient on displaced geometry   3 (of  24) >>
	<< Calculating gradient on displaced geometry   4 (of  24) >>
	<< Calculating gradient on displaced geometry   5 (of  24) >>
	<< Calculating gradient on displaced geometry   6 (of  24) >>
	<< Calculating gradient on displaced geometry   7 (of  24) >>
	<< Calculating gradient on displaced geometry   8 (of  24) >>
	<< Calculating gradient on displaced geometry   9 (of  24) >>
	<< Calculating gradient on displaced geometry  10 (of  24) >>
	<< Calculating gradient on displaced geometry  11 (of  24) >>
	<< Calculating gradient on displaced geometry  12 (of  24) >>
	<< Calculating gradient on displaced geometry  13 (of  24) >>
	<< Calculating gradient on displaced geometry  14 (of  24) >>
	<< Calculating gradient on displaced geometry  15 (of  24) >>
	<< Calculating gradient on displaced geometry  16 (of  24) >>
	<< Calculating gradient on displaced geometry  17 (of  24) >>
	<< Calculating gradient on displaced geometry  18 (of  24) >>
	<< Calculating gradient on displaced geometry  19 (of  24) >>
	<< Calculating gradient on displaced geometry  20 (of  24) >>
	<< Calculating gradient on displaced geometry  21 (of  24) >>
	<< Calculating gradient on displaced geometry  22 (of  24) >>
	<< Calculating gradient on displaced geometry  23 (of  24) >>
	<< Calculating gradient on displaced geometry  24 (of  24) >>

-----------------------
VIBRATIONAL FREQUENCIES
-----------------------

Scaling factor for frequencies =  1.000000000  (already applied!)

     0:       0.00 cm**-1
     1:       0.00 cm**-1
     2:       0.00 cm**-1
     3:       0.00 cm**-1
     4:       0.00 cm**-1
     5:       0.00 cm**-1
     6:    1034.82 cm**-1
     7:    1667.88 cm**-1
     8:    1667.98 cm**-1
     9:    3469.35 cm**-1
    10:    3589.01 cm**-1
    11:    3589.24 cm**-1


------------
NORMAL MODES
------------

These modes are the Cartesian displacements weighted by the diagonal matrix
M(i,i)=1/sqrt(m[i]) where m[i] is the mass of the displaced atom
Thus, these vectors are normalized but *not* orthogonal

                  0          1          2          3          4          5    
      0       0.000000   0.000000   0.000000   0.000000   0.000000   0.000000
      1       0.000000   0.000000   0.000000   0.000000   0.000000   0.000000
      2       0.000000   0.000000   0.000000   0.000000   0.000000   0.000000
      3       0.000000   0.000000   0.000000   0.000000   0.000000   0.000000
      4       0.000000   0.000000   0.000000   0.000000   0.000000   0.000000
      5       0.000000   0.000000   0.000000   0.000000   0.000000   0.000000
      6       0.000000   0.000000   0.000000   0.000000   0.000000   0.000000
      7       0.000000   0.000000   0.000000   0.000000   0.000000   0.000000
      8       0.000000   0.000000   0.000000   0.000000   0.000000   0.000000
      9       0.000000   0.000000   0.000000   0.000000   0.000000   0.000000
     10       0.000000   0.000000   0.000000   0.000000   0.000000   0.000000
     11       0.000000   0.000000   0.000000   0.000000   0.000000   0.000000
                  6          7          8          9         10         11    
      0      -0.000000   0.067399  -0.000749  -0.000000  -0.079363   0.000074
      1       0.000003   0.000749   0.067394  -0.000106  -0.000074  -0.079368
      2      -0.115772  -0.000000   0.000003  -0.037066   0.000000   0.000050
      3       0.000001  -0.762913   0.008476  -0.000000  -0.023396   0.000022
      4       0.203231   0.001540   0.138557  -0.549826   0.000710   0.759378
      5       0.536275   0.002774   0.249627   0.171302  -0.000275  -0.294223
      6      -0.175997  -0.082490   0.391340   0.477456   0.563417   0.337411
      7      -0.101639   0.384364  -0.541863   0.275649   0.338788   0.171436
      8       0.536234  -0.217600  -0.122434   0.171885   0.254731   0.146530
      9       0.175997  -0.091164  -0.389410  -0.477450   0.562794  -0.338459
     10      -0.101638  -0.396308  -0.533190   0.275645  -0.338471   0.172067
     11       0.536233   0.214827  -0.127239   0.171882  -0.254460   0.147004


-----------
IR SPECTRUM
-----------

 Mode   freq       eps      Int      T**2         TX        TY        TZ
       cm**-1   L/(mol*cm) km/mol    a.u.
----------------------------------------------------------------------------
  6:   1034.82   0.030389  153.57  0.009164  ( 0.000000 -0.000017  0.095729)
  7:   1667.88   0.003372   17.04  0.000631  (-0.025118 -0.000280  0.000001)
  8:   1667.98   0.003388   17.12  0.000634  ( 0.000279 -0.025177  0.000008)
  9:   3469.35   0.000293    1.48  0.000026  ( 0.000000  0.000005 -0.005133)
 10:   3589.01   0.000327    1.65  0.000028  ( 0.005333  0.000005  0.000000)
 11:   3589.24   0.000328    1.66  0.000029  (-0.000005  0.005341  0.000004)

* The epsilon (eps) is given for a Dirac delta lineshape.
** The dipole moment derivative (T) already includes vibrational overlap.

The first frequency considered to be a vibration is 6
The total number of vibrations considered is 6


--------------------------
THERMOCHEMISTRY AT 298.15K
--------------------------

Temperature         ...   298.15 K
Pressure            ...     1.00 atm
Total Mass          ...    17.03 AMU
Quasi RRHO          ...     True
Cut-Off Frequency   ...     1.00 cm^-1

Throughout the following assumptions are being made:
  (1) The electronic state is orbitally nondegenerate
  (2) There are no thermally accessible electronically excited states
  (3) Hindered rotations indicated by low frequency modes are not
      treated as such but are treated as vibrations and this may
      cause some error
  (4) All equations used are the standard statistical mechanics
      equations for an ideal gas
  (5) All vibrations are strictly harmonic

freq.    1034.82  E(vib)   ...       0.02 
freq.    1667.88  E(vib)   ...       0.00 
freq.    1667.98  E(vib)   ...       0.00 
freq.    3469.35  E(vib)   ...       0.00 
freq.    3589.01  E(vib)   ...       0.00 
freq.    3589.24  E(vib)   ...       0.00 

------------
INNER ENERGY
------------

The inner energy is: U= E(el) + E(ZPE) + E(vib) + E(rot) + E(trans)
    E(el)   - is the total energy from the electronic structure calculation
              = E(kin-el) + E(nuc-el) + E(el-el) + E(nuc-nuc)
    E(ZPE)  - the the zero temperature vibrational energy from the frequency calculation
    E(vib)  - the the finite temperature correction to E(ZPE) due to population
              of excited vibrational states
    E(rot)  - is the rotational thermal energy
    E(trans)- is the translational thermal energy

Summary of contributions to the inner energy U:
Electronic energy                ...    -56.55228963 Eh
Zero point energy                ...      0.03421416 Eh      21.47 kcal/mol
Thermal vibrational correction   ...      0.00003705 Eh       0.02 kcal/mol
Thermal rotational correction    ...      0.00141627 Eh       0.89 kcal/mol
Thermal translational correction ...      0.00141627 Eh       0.89 kcal/mol
-----------------------------------------------------------------------
Total thermal energy                    -56.51520588 Eh


Summary of corrections to the electronic energy:
(perhaps to be used in another calculation)
Total thermal correction                  0.00286959 Eh       1.80 kcal/mol
Non-thermal (ZPE) correction              0.03421416 Eh      21.47 kcal/mol
-----------------------------------------------------------------------
Total correction                          0.03708375 Eh      23.27 kcal/mol


--------
ENTHALPY
--------

The enthalpy is H = U + kB*T
                kB is Boltzmann's constant
Total thermal energy              ...    -56.51520588 Eh 
Thermal Enthalpy correction       ...      0.00094421 Eh       0.59 kcal/mol
-----------------------------------------------------------------------
Total Enthalpy                    ...    -56.51426167 Eh


Note: Rotational entropy computed according to Herzberg 
Infrared and Raman Spectra, Chapter V,1, Van Nostrand Reinhold, 1945 
Point Group:  C3v, Symmetry Number:   3  
Rotational constants in cm-1:     9.975661     9.975471     6.299533 

Vibrational entropy computed according to the QRRHO of S. Grimme
Chem.Eur.J. 2012 18 9955 using a reference frequency of 100.0 cm-1


-------
ENTROPY
-------

The entropy contributions are T*S = T*(S(el)+S(vib)+S(rot)+S(trans))
     S(el)   - electronic entropy
     S(vib)  - vibrational entropy
     S(rot)  - rotational entropy
     S(trans)- translational entropy
The entropies will be listed as multiplied by the temperature to get
units of energy

Electronic entropy                ...      0.00000000 Eh      0.00 kcal/mol
Vibrational entropy               ...      0.00004410 Eh      0.03 kcal/mol
Rotational entropy                ...      0.00543290 Eh      3.41 kcal/mol
Translational entropy             ...      0.01636425 Eh     10.27 kcal/mol
-----------------------------------------------------------------------
Final entropy term                ...      0.02184125 Eh     13.71 kcal/mol

In case the symmetry of your molecule has not been determined correctly
or in case you have a reason to use a different symmetry number we print 
out the resulting rotational entropy values for sn=1,12:

 non-linear molecules -----------------------------------
|  sn= 1 | S(rot)=       0.00647019 Eh      4.06 kcal/mol|
|  sn= 2 | S(rot)=       0.00581574 Eh      3.65 kcal/mol|
|  sn= 3 | S(rot)=       0.00543290 Eh      3.41 kcal/mol|
|  sn= 4 | S(rot)=       0.00516128 Eh      3.24 kcal/mol|
|  sn= 5 | S(rot)=       0.00495059 Eh      3.11 kcal/mol|
|  sn= 6 | S(rot)=       0.00477845 Eh      3.00 kcal/mol|
|  sn= 7 | S(rot)=       0.00463290 Eh      2.91 kcal/mol|
|  sn= 8 | S(rot)=       0.00450682 Eh      2.83 kcal/mol|
|  sn= 9 | S(rot)=       0.00439561 Eh      2.76 kcal/mol|
|  sn=10 | S(rot)=       0.00429614 Eh      2.70 kcal/mol|
|  sn=11 | S(rot)=       0.00420615 Eh      2.64 kcal/mol|
|  sn=12 | S(rot)=       0.00412399 Eh      2.59 kcal/mol|
 linear molecules ---------------------------------------
|  Dinfh | S(rot)=       0.00358806 Eh      2.25 kcal/mol|
|  Cinfv | S(rot)=       0.00424252 Eh      2.66 kcal/mol|
 --------------------------------------------------------


-------------------
GIBBS FREE ENERGY
-------------------

The Gibbs free energy is G = H - T*S

Total enthalpy                    ...    -56.51426167 Eh 
Total entropy correction          ...     -0.02184125 Eh    -13.71 kcal/mol
-----------------------------------------------------------------------
Final Gibbs free energy         ...    -56.53610292 Eh

For completeness - the Gibbs free energy minus the electronic energy
G-E(el)                           ...      0.01618671 Eh     10.16 kcal/mol



--------------------------------
SUGGESTED CITATIONS FOR THIS RUN
--------------------------------

Below you find a list of papers that are relevant to this ORCA run
We neither can nor want to force you to cite these papers, but we appreciate if you do
You receive ORCA, which is the product of decades of hard work by many enthusiastic individuals, for free
The only thing we kindly ask in return is that you cite our papers,
We deeply appreciate it, if you show your appreciation for ORCA by not just citing the generic ORCA reference.

Please note that relegating all ORCA citations to the supporting information does *not* help us.
SI sections are not indexed - citations you put there will not count into any citation statistics
But we need these citations in order to attract the funding resources that allow us to do what we are doing

Therefore, if you are a happy ORCA user, please consider citing a few of the papers listed below in the main body of your paper

In addition to the list printed below, the program has created the file NH3_Freq-B3LYP.bibtex that contains the list in bibtex format
You can import this file easily into all common literature databanks and citation aid programs


List of essential papers. We consider these as the minimum necessary citations

  1. Neese,F.
     Software update: the ORCA program system, version 5.0
     WIRES Comput. Molec. Sci., 2022 12(1)e1606
     doi.org/10.1002/wcms.1606

List of papers to cite with high priority. The work reported in these papers was absolutely
necessary for this run to complete.
Our perspective: the developers of density functionals and basis sets usually get cited in chemistry papers
Good! But without the algorithms to do something with them, the functionals or basis sets would not do anything.
Hence, in our opinion, the algorithm design and method developments papers are equally worthy of getting cited

  1. Neese,F.
     An improvement of the resolution of the identity approximation for the formation of the Coulomb matrix
     J. Comp. Chem., 2003 24(14)1740-1747
     doi.org/10.1002/jcc.10318
  2. Neese,F.; Wennmohs,F.; Hansen,A.; Becker,U.
     Efficient, approximate and parallel Hartree-Fock and hybrid DFT calculations. A 'chain-of-spheres' algorithm for the Hartree-Fock exchange
     Chem. Phys., 2009 356(1-3)98-109
     doi.org/10.1016/j.chemphys.2008.10.036
  3. Bykov,D.; Petrenko,T.; Izsak,R.; Kossmann,S.; Becker,U.; Valeev,E.; Neese,F.
     Efficient implementation of the analytic second derivatives of Hartree-Fock and hybrid DFT energies: a detailed analysis of different approximations
     Molec. Phys., 2015 113 1961-1977
     doi.org/10.1080/00268976.2015.1025114
  4. Helmich-Paris,B.; de Souza,B.; Neese,F.; Izsák,R.
     An improved chain of spheres for exchange algorithm
     J. Chem. Phys., 2021 155 104109
     doi.org/doi: 10.1063/5.0058766.
  5. Neese,F.
     The SHARK Integral Generation and Digestion System
     J. Comp. Chem., 2022  1-16
     doi.org/10.1002/jcc.26942

List of suggested additional citations. These are papers that are important in the 'surrounding' of 
of this run, or papers that preceded the highly important papers. If you like your results we are grateful for a citation.

  1. Izsak,R.; Neese,F.
     An overlap fitted chain of spheres exchange method
     J. Chem. Phys., 2011 135 144105
     doi.org/10.1063/1.3646921
  2. Izsak,R.; Hansen,A.; Neese,F.
     The resolution of identity and chain of spheres approximations for the LPNO-CCSD singles Fock term
     Molec. Phys., 2012 110 2413-2417
     doi.org/10.1080/00268976.2012.687466
  3. Neese,F.
     The ORCA program system
     WIRES Comput. Molec. Sci., 2012 2(1)73-78
     doi.org/10.1002/wcms.81
  4. Izsak,R.; Neese,F.; Klopper,W.
     Robust fitting techniques in the chain of spheres approximation to the Fock exchange: The role of the complementary space
     J. Chem. Phys., 2013 139 
     doi.org/10.1063/1.4819264
  5. Neese,F.
     Software update: the ORCA program system, version 4.0
     WIRES Comput. Molec. Sci., 2018 8(1)1-6
     doi.org/10.1002/wcms.1327
  6. Neese,F.; Wennmohs,F.; Becker,U.; Riplinger,C.
     The ORCA quantum chemistry program package
     J. Chem. Phys., 2020 152 Art. No. L224108
     doi.org/10.1063/5.0004608

List of optional additional citations

  1. Neese,F.
     Approximate second-order SCF convergence for spin unrestricted wavefunctions
     Chem. Phys. Lett., 2000 325(1-3)93-98
     doi.org/10.1016/s0009-2614(00)00662-x

Timings for individual modules:

Sum of individual times          ...      123.360 sec (=   2.056 min)
Startup calculation              ...        1.763 sec (=   0.029 min)   1.4 %
SCF iterations                   ...       12.844 sec (=   0.214 min)  10.4 %
Property calculations            ...        0.165 sec (=   0.003 min)   0.1 %
SCF Gradient evaluation          ...       10.900 sec (=   0.182 min)   8.8 %
Geometry relaxation              ...        0.076 sec (=   0.001 min)   0.1 %
Numerical frequency calculation  ...       97.612 sec (=   1.627 min)  79.1 %
                             ****ORCA TERMINATED NORMALLY****
TOTAL RUN TIME: 0 days 0 hours 2 minutes 0 seconds 971 msec
