
                                 *****************
                                 * O   R   C   A *
                                 *****************

                                            #,                                       
                                            ###                                      
                                            ####                                     
                                            #####                                    
                                            ######                                   
                                           ########,                                 
                                     ,,################,,,,,                         
                               ,,#################################,,                 
                          ,,##########################################,,             
                       ,#########################################, ''#####,          
                    ,#############################################,,   '####,        
                  ,##################################################,,,,####,       
                ,###########''''           ''''###############################       
              ,#####''   ,,,,##########,,,,          '''####'''          '####       
            ,##' ,,,,###########################,,,                        '##       
           ' ,,###''''                  '''############,,,                           
         ,,##''                                '''############,,,,        ,,,,,,###''
      ,#''                                            '''#######################'''  
     '                                                          ''''####''''         
             ,#######,   #######,   ,#######,      ##                                
            ,#'     '#,  ##    ##  ,#'     '#,    #''#        ,####,   ,####,        
            ##       ##  ##   ,#'  ##            #'  '#       #'       #'  '#        
            ##       ##  #######   ##           ,######,      #####,   #    #        
            '#,     ,#'  ##    ##  '#,     ,#' ,#      #,     #,   #   #,  ,#        
             '#######'   ##     ##  '#######'  #'      '#     '####' # '####'        



                #########################################################
                #                        -***-                          #
                #          Department of theory and spectroscopy        #
                #                                                       #
                #                      Frank Neese                      #
                #                                                       #
                #     Directorship, Architecture, Infrastructure        #
                #                    SHARK, DRIVERS                     #
                #        Core code/Algorithms in most modules           #
                #                                                       #
                #        Max Planck Institute fuer Kohlenforschung      #
                #                Kaiser Wilhelm Platz 1                 #
                #                 D-45470 Muelheim/Ruhr                 #
                #                      Germany                          #
                #                                                       #
                #                  All rights reserved                  #
                #                        -***-                          #
                #########################################################


                         Program Version 6.0.1  -  RELEASE   -


 With contributions from (in alphabetic order):
[Max-Planck-Institut fuer Kohlenforschung]                               
  Daniel Aravena         : Magnetic Suceptibility                        
  Michael Atanasov       : Ab Initio Ligand Field Theory (pilot matlab implementation)
  Alexander A. Auer      : GIAO ZORA, VPT2 properties, NMR spectrum      
  Ute Becker             : All parallelization in ORCA, NUMFREQ, NUMCALC 
  Giovanni Bistoni       : ED, misc. LED, open-shell LED, HFLD           
  Martin Brehm           : Molecular dynamics                            
  Dmytro Bykov           : pre 5.0 version of the SCF Hessian            
  Marcos Casanova-Páez   : Triplet and SCS-CIS(D). UHF-(DLPNO)-IP/EA/STEOM-CCSD. UHF-CVS-IP/STEOM-CCSD   
  Vijay G. Chilkuri      : MRCI spin determinant printing, contributions to CSF-ICE 
  Pauline Colinet        : FMM embedding                                 
  Dipayan Datta          : RHF DLPNO-CCSD density                        
  Achintya Kumar Dutta   : EOM-CC, STEOM-CC                              
  Nicolas Foglia         : Exact transition moments, OPA infrastructure, MCD improvements    
  Dmitry Ganyushin       : Spin-Orbit,Spin-Spin,Magnetic field MRCI      
  Miquel Garcia-Rates    : C-PCM and meta-GGA Hessian, CCSD/C-PCM, Gaussian charge scheme 
  Tiago L. C. Gouveia    : GS-ROHF, GS-ROCIS                             
  Yang Guo               : DLPNO-NEVPT2, F12-NEVPT2, CIM, IAO-localization        
  Andreas Hansen         : Spin unrestricted coupled pair/coupled cluster methods 
  Ingolf Harden          : AUTO-CI MPn and infrastructure                
  Benjamin Helmich-Paris : MC-RPA, TRAH-(SCF,CASSCF), AVAS, COSX integrals, SCF dyn. polar. 
  Lee Huntington         : MR-EOM, pCC                                   
  Robert Izsak           : Overlap fitted RIJCOSX, COSX-SCS-MP3, EOM     
  Riya Kayal             : Wick's Theorem for AUTO-CI, AUTO-CI UHF-CCSDT 
  Emily Kempfer          : AUTO-CI, RHF CISDT and CCSDT                  
  Christian Kollmar      : KDIIS, OOCD, Brueckner-CCSD(T), CCSD density, CASPT2, CASPT2-K, improved NEVPT2 
  Axel Koslowski         : Symmetry handling                             
  Simone Kossmann        : meta-GGA functionals, TD-DFT gradient, OOMP2, (MP2 Hessian; deprecated post 5.0) 
  Lucas Lang             : DCDCAS                                        
  Marvin Lechner         : AUTO-CI (C++ implementation), FIC-MRCC        
  Spencer Leger          : CASSCF response                               
  Dagmar Lenk            : GEPOL surface, SMD, ORCA-2-JSON               
  Dimitrios Liakos       : Extrapolation schemes; Compound Job, initial MDCI parallelization 
  Dimitrios Manganas     : Further ROCIS development; embedding schemes. LFT, Crystal Embedding 
  Dimitrios Pantazis     : SARC Basis sets                               
  Anastasios Papadopoulos: AUTO-CI, single reference methods and gradients 
  Taras Petrenko         : pre 6.0 DFT Hessian and TD-DFT gradient, (ASA, deprecated), ECA, 1-Electron XAS/XES, NRVS 
  Peter Pinski           : DLPNO-MP2, DLPNO-MP2 Gradient                 
  Christoph Reimann      : Effective Core Potentials                     
  Marius Retegan         : Local ZFS, SOC                                
  Christoph Riplinger    : Optimizer, TS searches, QM/MM, DLPNO-CCSD(T), (RO)-DLPNO pert. Triples 
  Michael Roemelt        : Original ROCIS implementation                 
  Masaaki Saitow         : Open-shell DLPNO-CCSD energy and density      
  Barbara Sandhoefer     : DKH picture change effects                    
  Kantharuban Sivalingam : CASSCF convergence/infrastructure, NEVPT2 and variants, FIC-MRCI 
  Bernardo de Souza      : ESD, SOC TD-DFT                               
  Georgi L. Stoychev     : AutoAux, RI-MP2 NMR, DLPNO-MP2 response, X2C  
  Van Anh Tran           : RI-MP2 g-tensors                              
  Willem Van den Heuvel  : Paramagnetic NMR                              
  Zikuan Wang            : NOTCH, Electric field optimization            
  Frank Wennmohs         : Technical directorship and infrastructure     
  Hang Xu                : AUTO-CI-Response properties                   
                                                                         
[FACCTs GmbH]                                                            
  Markus Bursch, Miquel Garcia-Rates, Christoph Riplinger, Bernardo de Souza, Georgi L. Stoychev 
                                                                 
  APM, Basis sets (HGBS, AHGBS, def-TZVP (Ac-Lr), def2-XVPD (La-Lu)), CI-OPT, improved COSX, DLPNO-Multilevel,           
  DOCKER, DRACO, updates on ESD, GOAT, IRC, LR-CPCM, MBIS, meta-GGA TD-DFT gradient, ML-optimized integration grids, 
  MM, NACMEs, nearIR, NEB, NEB-TS, NL-DFT gradient (VV10), 2- and 3-layer-ONIOM, interface openCOSMO-RS, QMMM,   
  Crystal-QMMM, SF, symmetry and pop. for TD-DFT, r2SCAN hybrids, SOLVATOR                                   
                                                                         
[Other institutions]                                                     
  V. Asgeirsson          : NEB                                           
  Christoph Bannwarth    : sTDA-DFT, sTD-DFT, PBEh-3c, B97-3c, D3        
  Sebastian Ehlert       : rSCAN, r2SCAN, r2SCAN-3c, D4, dhf basis sets  
  Marvin Friede          : D4 for Fr, Ra, Ac-Lr                          
  Lars Goerigk           : TD-DFT with DH, B97 family of functionals     
  Stefan Grimme          : VdW corrections, initial TS optimization, DFT functionals, gCP, sTDA/sTD-DF 
  Waldemar Hujo          : DFT-NL                                        
  H. Jonsson             : NEB                                           
  Holger Kruse           : gCP                                           
  Marcel Mueller         : wB97X-3c, vDZP basis set                      
  Hagen Neugebauer       : wr2SCAN                                       
  Tobias Risthaus        : range-separated hybrid DFT                    
  Lukas Wittmann         : regularized MP2, r2SCAN double-hybrids, wr2SCAN        
                                                                         
We gratefully acknowledge several colleagues who have allowed us to      
interface, adapt or use parts of their codes:                            
  Ed Valeev, F. Pavosevic, A. Kumar             : LibInt (2-el integral package), F12 methods 
  Garnet Chan, S. Sharma, J. Yang, R. Olivares  : DMRG                   
  Ulf Ekstrom                                   : XCFun DFT Library      
  Mihaly Kallay                                 : mrcc  (arbitrary order and MRCC methods)
  Frank Weinhold                                : gennbo (NPA and NBO analysis)           
  Simon Mueller                                 : openCOSMO-RS                            
  Christopher J. Cramer and Donald G. Truhlar   : smd solvation model                     
  S Lehtola, MJT Oliveira, MAL Marques          : LibXC Library                           
  Liviu Ungur et al                             : ANISO software                          


 Your calculation uses the libint2 library for the computation of 2-el integrals
 For citations please refer to: http://libint.valeyev.net

 Your ORCA version has been built with support for libXC version: 6.2.2
 For citations please refer to: https://libxc.gitlab.io

 This ORCA versions uses:
   CBLAS   interface :  Fast vector & matrix operations
   LAPACKE interface :  Fast linear algebra routines
   Shared memory     :  Shared parallel matrices


NOTE: MaxCore=4000 MB was set to SCF,MP2,MDCI,CIPSI,MRCI and CIS
      => If you want to overwrite this, your respective input block should be placed after the MaxCore statement
Warning: RI is on but no J-basis has been assigned. Assigning Def2/J (nothing to worry about!)
================================================================================

----- Orbital basis set information -----
Your calculation utilizes the basis: def2-TZVPP
   F. Weigend and R. Ahlrichs, Phys. Chem. Chem. Phys. 7, 3297 (2005).

----- AuxJ basis set information -----
Your calculation utilizes the auxiliary basis: def2/J
   F. Weigend, Phys. Chem. Chem. Phys. 8, 1057 (2006).

================================================================================
                                        WARNINGS
                       Please study these warnings very carefully!
================================================================================


WARNING: Geometry Optimization
  ===> : Switching off AutoStart
         For restart on a previous wavefunction, please use MOREAD

================================================================================
                                       INPUT FILE
================================================================================
NAME = HCl_Opt_Geom-LDA.inp
|  1> ! LDA def2-TZVPP Opt TightOpt VeryTightSCF
|  2> 
|  3> %scf
|  4>    MaxIter 400          # Máximo de iteraciones permitidas para el SCF
|  5> end
|  6> 
|  7> %geom
|  8>    TolRMSD 1.0e-5
|  9>    TolMAXD 1.0e-4
| 10>    TolRMSG 1.0e-5
| 11>    TolMAXG 1.0e-4
| 12> end
| 13> 
| 14> %pal
| 15>    nprocs 1
| 16> end
| 17> 
| 18> 
| 19> %MaxCore 4000            # Memoria máxima por núcleo (en MB)
| 20> 
| 21> * xyz 0 1
| 22> Cl     0.000000    0.000000    0.074144
| 23> H      0.000000    0.000000   -1.208014
| 24> **                         ****END OF INPUT****
================================================================================

                       *****************************
                       * Geometry Optimization Run *
                       *****************************

Geometry optimization settings:
Update method            Update   .... BFGS
Choice of coordinates    CoordSys .... (2022) Redundant Internals
Initial Hessian          InHess   .... Almloef's Model
Max. no of cycles        MaxIter  .... 50

Convergence Tolerances:
Energy Change            TolE     ....  1.0000e-06 Eh
Max. Gradient            TolMAXG  ....  1.0000e-04 Eh/bohr
RMS Gradient             TolRMSG  ....  1.0000e-05 Eh/bohr
Max. Displacement        TolMAXD  ....  1.0000e-04 bohr
RMS Displacement         TolRMSD  ....  1.0000e-05 bohr
Strict Convergence                .... False

------------------------------------------------------------------------------
                        ORCA OPTIMIZATION COORDINATE SETUP
------------------------------------------------------------------------------

The optimization will be done in redundant internal coordinates (2022)
Making redundant internal coordinates   ...  (2022 redundants) done
Evaluating the initial hessian          ...  (Almloef) done
Evaluating the coordinates              ...  done
Calculating the B-matrix                .... done
Calculating the G-matrix                .... done
Diagonalizing the G-matrix              .... done
The first mode is                       ....    0
The number of degrees of freedom        ....    1

    -----------------------------------------------------------------
                    Redundant Internal Coordinates


    -----------------------------------------------------------------
         Definition                    Initial Value    Approx d2E/dq
    -----------------------------------------------------------------
      1. B(H   1,Cl  0)                  1.2822         0.398881   
    -----------------------------------------------------------------

Number of atoms                         .... 2
Number of degrees of freedom            .... 1


         *************************************************************
         *                GEOMETRY OPTIMIZATION CYCLE   1            *
         *************************************************************
---------------------------------
CARTESIAN COORDINATES (ANGSTROEM)
---------------------------------
  Cl     0.000000    0.000000    0.074144
  H      0.000000    0.000000   -1.208014

----------------------------
CARTESIAN COORDINATES (A.U.)
----------------------------
  NO LB      ZA    FRAG     MASS         X           Y           Z
   0 Cl   17.0000    0    35.453    0.000000    0.000000    0.140112
   1 H     1.0000    0     1.008    0.000000    0.000000   -2.282816

--------------------------------
INTERNAL COORDINATES (ANGSTROEM)
--------------------------------
 Cl     0   0   0     0.000000000000     0.00000000     0.00000000
 H      1   0   0     1.282158000000     0.00000000     0.00000000

---------------------------
INTERNAL COORDINATES (A.U.)
---------------------------
 Cl     0   0   0     0.000000000000     0.00000000     0.00000000
 H      1   0   0     2.422927480416     0.00000000     0.00000000

---------------------
BASIS SET INFORMATION
---------------------
There are 2 groups of distinct atoms

 Group   1 Type Cl  : 14s9p3d1f contracted to 5s5p3d1f pattern {73211/51111/111/1}
 Group   2 Type H   : 5s2p1d contracted to 3s2p1d pattern {311/11/1}

Atom   0Cl   basis set group =>   1
Atom   1H    basis set group =>   2
---------------------------------
AUXILIARY/J BASIS SET INFORMATION
---------------------------------
There are 2 groups of distinct atoms

 Group   1 Type Cl  : 14s5p5d2f1g contracted to 8s4p3d1f1g pattern {71111111/2111/311/2/1}
 Group   2 Type H   : 5s2p1d contracted to 3s1p1d pattern {311/2/1}

Atom   0Cl   basis set group =>   1
Atom   1H    basis set group =>   2
------------------------------------------------------------------------------
                             ORCA STARTUP CALCULATIONS
                           -- RI-GTO INTEGRALS CHOSEN --
------------------------------------------------------------------------------
------------------------------------------------------------------------------
                   ___                                                        
                  /   \      - P O W E R E D   B Y -                         
                 /     \                                                     
                 |  |  |   _    _      __       _____    __    __             
                 |  |  |  | |  | |    /  \     |  _  \  |  |  /  |          
                  \  \/   | |  | |   /    \    | | | |  |  | /  /          
                 / \  \   | |__| |  /  /\  \   | |_| |  |  |/  /          
                |  |  |   |  __  | /  /__\  \  |    /   |      \           
                |  |  |   | |  | | |   __   |  |    \   |  |\   \          
                \     /   | |  | | |  |  |  |  | |\  \  |  | \   \       
                 \___/    |_|  |_| |__|  |__|  |_| \__\ |__|  \__/        
                                                                              
                      - O R C A' S   B I G   F R I E N D -                    
                                      &                                       
                       - I N T E G R A L  F E E D E R -                       
                                                                              
 v1 FN, 2020, v2 2021, v3 2022-2024                                           
------------------------------------------------------------------------------


----------------------
SHARK INTEGRAL PACKAGE
----------------------

Number of atoms                             ...      2
Number of basis functions                   ...     56
Number of shells                            ...     20
Maximum angular momentum                    ...      3
Integral batch strategy                     ... SHARK/LIBINT Hybrid
RI-J (if used) integral strategy            ... SPLIT-RIJ (Revised 2003 algorithm where possible)
Printlevel                                  ...      1
Contraction scheme used                     ... SEGMENTED contraction
Prescreening option                         ... SCHWARTZ
   Thresh                                   ... 1.000e-12
   Tcut                                     ... 1.000e-14
   Tpresel                                  ... 1.000e-14 
Coulomb Range Separation                    ... NOT USED
Exchange Range Separation                   ... NOT USED
Multipole approximations                    ... NOT USED
Finite Nucleus Model                        ... NOT USED
CABS basis                                  ... NOT available
Auxiliary Coulomb fitting basis             ... AVAILABLE
   # of basis functions in Aux-J            ...     62
   # of shells in Aux-J                     ...     22
   Maximum angular momentum in Aux-J        ...      4
Auxiliary J/K fitting basis                 ... NOT available
Auxiliary Correlation fitting basis         ... NOT available
Auxiliary 'external' fitting basis          ... NOT available

Checking pre-screening integrals            ... done (  0.0 sec) Dimension = 20
Check shell pair data                       ... done (  0.0 sec)
Shell pair information
Shell pair cut-off parameter TPreSel        ...   1.0e-14
Total number of shell pairs                 ...       210
Shell pairs after pre-screening             ...       210
Total number of primitive shell pairs       ...       668
Primitive shell pairs kept                  ...       654
          la=0 lb=0:     36 shell pairs
          la=1 lb=0:     56 shell pairs
          la=1 lb=1:     28 shell pairs
          la=2 lb=0:     32 shell pairs
          la=2 lb=1:     28 shell pairs
          la=2 lb=2:     10 shell pairs
          la=3 lb=0:      8 shell pairs
          la=3 lb=1:      7 shell pairs
          la=3 lb=2:      4 shell pairs
          la=3 lb=3:      1 shell pairs

Calculating one electron integrals          ... done (  0.0 sec)
Calculating RI/J V-Matrix + Cholesky decomp.... done (  0.0 sec)
Calculating Nuclear repulsion               ... done (  0.0 sec) ENN=      7.016305744768 Eh

Diagonalization of the overlap matrix:
Smallest eigenvalue                        ... 4.016e-03
Time for diagonalization                   ...    0.001 sec
Threshold for overlap eigenvalues          ... 1.000e-07
Number of eigenvalues below threshold      ... 0
Time for construction of square roots      ...    0.001 sec
Total time needed                          ...    0.013 sec

-------------------
DFT GRID GENERATION
-------------------

General Integration Accuracy     IntAcc      ... 4.388
Radial Grid Type                 RadialGrid  ... OptM3 with GC (2021)
Angular Grid (max. ang.)         AngularGrid ... 4 (Lebedev-302)
Angular grid pruning method      GridPruning ... 4 (adaptive)
Weight generation scheme         WeightScheme... mBecke (2022)
Basis function cutoff            BFCut       ... 1.0000e-12
Integration weight cutoff        WCut        ... 1.0000e-14
Partially contracted basis set               ... off
Rotationally invariant grid construction     ... off
Angular grids for H and He will be reduced by one unit

Total number of grid points                  ...    10685
Total number of batches                      ...      168
Average number of points per batch           ...       63
Average number of grid points per atom       ...     5343
Initializing property integral containers    ... done (  0.0 sec)

SHARK setup successfully completed in   0.1 seconds

Maximum memory used throughout the entire STARTUP-calculation: 15.1 MB
-------------------------------------------------------------------------------
                                 ORCA GUESS
                   Start orbitals & Density for SCF / CASSCF
-------------------------------------------------------------------------------

------------
SCF SETTINGS
------------
Hamiltonian:
 Density Functional     Method          .... DFT(GTOs)
 Exchange Functional    Exchange        .... Slater
   X-Alpha parameter    XAlpha          ....  0.666667
 Correlation Functional Correlation     .... VWN-5
 Gradients option       PostSCFGGA      .... off
 RI-approximation to the Coulomb term is turned on
   Number of AuxJ basis functions       .... 62


General Settings:
 Integral files         IntName         .... HCl_Opt_Geom-LDA
 Hartree-Fock type      HFTyp           .... RHF
 Total Charge           Charge          ....    0
 Multiplicity           Mult            ....    1
 Number of Electrons    NEL             ....   18
 Basis Dimension        Dim             ....   56
 Nuclear Repulsion      ENuc            ....      7.0163057448 Eh

Convergence Acceleration:
 AO-DIIS                CNVDIIS         .... on
   Start iteration      DIISMaxIt       ....    12
   Startup error        DIISStart       ....  0.200000
   # of expansion vecs  DIISMaxEq       ....     5
   Bias factor          DIISBfac        ....   1.050
   Max. coefficient     DIISMaxC        ....  10.000
 MO-DIIS                CNVKDIIS        .... off
 Trust-Rad. Augm. Hess. CNVTRAH         .... auto
   Auto Start mean grad. ratio tolernc. ....  1.125000
   Auto Start start iteration           ....    50
   Auto Start num. interpolation iter.  ....    10
   Max. Number of Micro iterations      ....    24
   Max. Number of Macro iterations      .... Maxiter - #DIIS iter
   Number of Davidson start vectors     ....     2
   Converg. threshold    (grad. norm)   ....   2.000e-06
   Grad. Scal. Fac. for Micro threshold ....   0.100
   Minimum threshold for Micro iter.    ....   1.000e-02
   NR start threshold (gradient norm)   ....   1.000e-04
   Initial trust radius                 ....   0.400
   Minimum AH scaling param. (alpha)    ....   1.000
   Maximum AH scaling param. (alpha)    .... 1000.000
   Quad. conv. algorithm                .... NR
   White noise on init. David. guess    .... on
   Maximum white noise                  ....   0.010
   Pseudo random numbers                .... off
   Inactive MOs                         .... canonical
   Orbital update algorithm             .... Taylor
   Preconditioner                       .... Diag
   Full preconditioner red. dimension   ....   250
 SOSCF                  CNVSOSCF        .... on
   Start iteration      SOSCFMaxIt      ....   150
   Startup grad/error   SOSCFStart      ....  0.003300
   Hessian update       SOSCFHessUp     .... L-BFGS
 Level Shifting         CNVShift        .... on
   Level shift para.    LevelShift      ....    0.2500
   Turn off err/grad.   ShiftErr        ....    0.0010
 Zerner damping         CNVZerner       .... off
 Static damping         CNVDamp         .... on
   Fraction old density DampFac         ....    0.7000
   Max. Damping (<1)    DampMax         ....    0.9800
   Min. Damping (>=0)   DampMin         ....    0.0000
   Turn off err/grad.   DampErr         ....    0.1000

SCF Procedure:
 Maximum # iterations   MaxIter         ....   400
 SCF integral mode      SCFMode         .... Direct
   Integral package                     .... SHARK and LIBINT hybrid scheme
 Reset frequency        DirectResetFreq ....    20
 Integral Threshold     Thresh          ....  1.000e-12 Eh
 Primitive CutOff       TCut            ....  1.000e-14 Eh

Convergence Tolerance:
 Convergence Check Mode ConvCheckMode   .... Total+1el-Energy
 Convergence forced     ConvForced      .... 0
 Energy Change          TolE            ....  1.000e-09 Eh
 1-El. energy change                    ....  1.000e-06 Eh
 Orbital Gradient       TolG            ....  2.000e-06
 Orbital Rotation angle TolX            ....  2.000e-06
 DIIS Error             TolErr          ....  1.000e-08

------------------------------
INITIAL GUESS: MODEL POTENTIAL
------------------------------
Loading Hartree-Fock densities                     ... done
Calculating cut-offs                               ... done
Initializing the effective Hamiltonian             ... done
Setting up the integral package (SHARK)            ... done
Starting the Coulomb interaction                   ... done (   0.0 sec)
Making the grid                                    ... done (   0.0 sec)
Mapping shells                                     ... done
Starting the XC term evaluation                    ... done (   0.0 sec)
  promolecular density results
     # of electrons  =     17.999586649
     EX              =    -25.664975466
     EC              =     -1.382229165
     EX+EC           =    -27.047204631
Transforming the Hamiltonian                       ... done (   0.0 sec)
Diagonalizing the Hamiltonian                      ... done (   0.0 sec)
Back transforming the eigenvectors                 ... done (   0.0 sec)
Now organizing SCF variables                       ... done
                      ------------------
                      INITIAL GUESS DONE (   0.1 sec)
                      ------------------
             **** ENERGY FILE WAS UPDATED (HCl_Opt_Geom-LDA.en.tmp) ****
Finished Guess after   0.1 sec
Maximum memory used throughout the entire GUESS-calculation: 7.3 MB

-------------------------------------------------------------------------------------------
                                      ORCA LEAN-SCF
                              memory conserving SCF solver
-------------------------------------------------------------------------------------------

----------------------------------------D-I-I-S--------------------------------------------
Iteration    Energy (Eh)           Delta-E    RMSDP     MaxDP     DIISErr   Damp  Time(sec)
-------------------------------------------------------------------------------------------
               ***  Starting incremental Fock matrix formation  ***
    1    -459.3120509920983636     0.00e+00  1.79e-03  3.68e-02  6.71e-02  0.700   0.1
    2    -459.3157229247083251    -3.67e-03  1.26e-03  2.12e-02  3.59e-02  0.700   0.1
                               ***Turning on AO-DIIS***
    3    -459.3172390691085525    -1.52e-03  4.24e-04  7.24e-03  1.51e-02  0.700   0.1
    4    -459.3180933500374294    -8.54e-04  6.03e-04  1.09e-02  8.21e-03  0.000   0.1
                              *** Initializing SOSCF ***
---------------------------------------S-O-S-C-F--------------------------------------
Iteration    Energy (Eh)           Delta-E    RMSDP     MaxDP     MaxGrad    Time(sec)
--------------------------------------------------------------------------------------
    5    -459.3199283385040985    -1.83e-03  9.69e-05  1.72e-03  2.02e-03     0.1
               *** Restarting incremental Fock matrix formation ***
    6    -459.3199350334590463    -6.69e-06  6.34e-05  8.18e-04  3.22e-04     0.1
    7    -459.3199348322844457     2.01e-07  3.17e-05  5.21e-04  3.23e-04     0.1
    8    -459.3199355924106158    -7.60e-07  3.55e-06  5.54e-05  1.70e-05     0.1
    9    -459.3199355934323762    -1.02e-09  1.71e-06  3.11e-05  1.69e-05     0.1
   10    -459.3199355960709340    -2.64e-09  4.21e-07  9.91e-06  4.07e-06     0.1
   11    -459.3199355961143056    -4.34e-11  1.18e-07  2.42e-06  1.97e-06     0.1
                 **** Energy Check signals convergence ****

               *****************************************************
               *                     SUCCESS                       *
               *           SCF CONVERGED AFTER  11 CYCLES          *
               *****************************************************

             **** ENERGY FILE WAS UPDATED (HCl_Opt_Geom-LDA.en.tmp) ****

----------------
TOTAL SCF ENERGY
----------------

Total Energy       :       -459.31993559611431 Eh          -12498.73087 eV

Components:
Nuclear Repulsion  :          7.01630574476781 Eh             190.92339 eV
Electronic Energy  :       -466.33624134088211 Eh          -12689.65426 eV
One Electron Energy:       -649.87395956682246 Eh          -17683.96948 eV
Two Electron Energy:        183.53771822594035 Eh            4994.31522 eV

Virial components:
Potential Energy   :       -919.04433374529822 Eh          -25008.46773 eV
Kinetic Energy     :        459.72439814918397 Eh           12509.73686 eV
Virial Ratio       :          1.99912020646566

DFT components:
N(Alpha)           :        9.000000184891 electrons
N(Beta)            :        9.000000184891 electrons
N(Total)           :       18.000000369782 electrons
E(X)               :      -25.693566969217 Eh       
E(C)               :       -1.385726293863 Eh       
E(XC)              :      -27.079293263080 Eh       

---------------
SCF CONVERGENCE
---------------

  Last Energy change         ...    4.3372e-11  Tolerance :   1.0000e-09
  Last MAX-Density change    ...    2.4220e-06  Tolerance :   1.0000e-08
  Last RMS-Density change    ...    1.1794e-07  Tolerance :   1.0000e-09
  Last DIIS Error            ...    2.0191e-03  Tolerance :   1.0000e-08
  Last Orbital Gradient      ...    1.9690e-06  Tolerance :   2.0000e-06
  Last Orbital Rotation      ...    9.2308e-07  Tolerance :   2.0000e-06


----------------
ORBITAL ENERGIES
----------------

  NO   OCC          E(Eh)            E(eV) 
   0   2.0000    -100.303507     -2729.3972 
   1   2.0000      -9.141270      -248.7466 
   2   2.0000      -7.000007      -190.4799 
   3   2.0000      -6.990028      -190.2083 
   4   2.0000      -6.990028      -190.2083 
   5   2.0000      -0.771185       -20.9850 
   6   2.0000      -0.430122       -11.7042 
   7   2.0000      -0.295161        -8.0317 
   8   2.0000      -0.295161        -8.0317 
   9   0.0000      -0.028399        -0.7728 
  10   0.0000       0.150472         4.0945 
  11   0.0000       0.296272         8.0620 
  12   0.0000       0.296272         8.0620 
  13   0.0000       0.301742         8.2108 
  14   0.0000       0.308231         8.3874 
  15   0.0000       0.308231         8.3874 
  16   0.0000       0.368413        10.0250 
  17   0.0000       0.368413        10.0250 
  18   0.0000       0.551427        15.0051 
  19   0.0000       0.676877        18.4188 
*Only the first 10 virtual orbitals were printed.

                    ********************************
                    * MULLIKEN POPULATION ANALYSIS *
                    ********************************

-----------------------
MULLIKEN ATOMIC CHARGES
-----------------------
   0 Cl:   -0.195849
   1 H :    0.195849
Sum of atomic charges:   -0.0000000

--------------------------------
MULLIKEN REDUCED ORBITAL CHARGES
--------------------------------
  0 Cls       :     5.935797  s :     5.935797
      pz      :     3.284750  p :    11.229092
      px      :     3.972171
      py      :     3.972171
      dz2     :     0.024604  d :     0.028330
      dxz     :     0.001863
      dyz     :     0.001863
      dx2y2   :     0.000000
      dxy     :     0.000000
      f0      :     0.002195  f :     0.002630
      f+1     :     0.000217
      f-1     :     0.000217
      f+2     :     0.000000
      f-2     :     0.000000
      f+3     :     0.000000
      f-3     :     0.000000

  1 H s       :     0.735216  s :     0.735216
      pz      :     0.016878  p :     0.065984
      px      :     0.024553
      py      :     0.024553
      dz2     :     0.000559  d :     0.002951
      dxz     :     0.001196
      dyz     :     0.001196
      dx2y2   :     0.000000
      dxy     :     0.000000



                     *******************************
                     * LOEWDIN POPULATION ANALYSIS *
                     *******************************

----------------------
LOEWDIN ATOMIC CHARGES
----------------------
   0 Cl:    0.205564
   1 H :   -0.205564

-------------------------------
LOEWDIN REDUCED ORBITAL CHARGES
-------------------------------
  0 Cls       :     5.597326  s :     5.597326
      pz      :     3.336014  p :    11.156249
      px      :     3.910118
      py      :     3.910118
      dz2     :     0.036160  d :     0.036733
      dxz     :     0.000286
      dyz     :     0.000286
      dx2y2   :     0.000000
      dxy     :     0.000000
      f0      :     0.003921  f :     0.004128
      f+1     :     0.000103
      f-1     :     0.000103
      f+2     :     0.000000
      f-2     :     0.000000
      f+3     :     0.000000
      f-3     :     0.000000

  1 H s       :     0.858307  s :     0.858307
      pz      :     0.150690  p :     0.303179
      px      :     0.076245
      py      :     0.076245
      dz2     :     0.017582  d :     0.044078
      dxz     :     0.013248
      dyz     :     0.013248
      dx2y2   :     0.000000
      dxy     :     0.000000



                      *****************************
                      * MAYER POPULATION ANALYSIS *
                      *****************************

  NA   - Mulliken gross atomic population
  ZA   - Total nuclear charge
  QA   - Mulliken gross atomic charge
  VA   - Mayer's total valence
  BVA  - Mayer's bonded valence
  FA   - Mayer's free valence

  ATOM       NA         ZA         QA         VA         BVA        FA
  0 Cl    17.1958    17.0000    -0.1958     1.0254     1.0254    -0.0000
  1 H      0.8042     1.0000     0.1958     1.0254     1.0254    -0.0000

  Mayer bond orders larger than 0.100000
B(  0-Cl,  1-H ) :   1.0254 

-------
TIMINGS
-------

Total SCF time: 0 days 0 hours 0 min 0 sec 

Total time                  ....       0.950 sec
Sum of individual times     ....       0.912 sec  ( 96.0%)

SCF preparation             ....       0.038 sec  (  4.0%)
Fock matrix formation       ....       0.320 sec  ( 33.7%)
  Startup                   ....       0.016 sec  (  5.0% of F)
  Split-RI-J                ....       0.074 sec  ( 23.1% of F)
  XC integration            ....       0.163 sec  ( 50.9% of F)
    Basis function eval.    ....       0.037 sec  ( 22.7% of XC)
    Density eval.           ....       0.036 sec  ( 22.1% of XC)
    XC-Functional eval.     ....       0.013 sec  (  8.0% of XC)
    XC-Potential eval.      ....       0.035 sec  ( 21.5% of XC)
Diagonalization             ....       0.000 sec  (  0.0%)
Density matrix formation    ....       0.191 sec  ( 20.1%)
Total Energy calculation    ....       0.073 sec  (  7.7%)
Population analysis         ....       0.011 sec  (  1.2%)
Orbital Transformation      ....       0.026 sec  (  2.7%)
Orbital Orthonormalization  ....       0.000 sec  (  0.0%)
DIIS solution               ....       0.138 sec  ( 14.5%)
SOSCF solution              ....       0.115 sec  ( 12.1%)
Finished LeanSCF after   1.0 sec

Maximum memory used throughout the entire LEANSCF-calculation: 5.0 MB

-------------------------   --------------------
FINAL SINGLE POINT ENERGY      -459.319935596114
-------------------------   --------------------

------------------------------------------------------------------------------
                         ORCA SCF GRADIENT CALCULATION
------------------------------------------------------------------------------

Nuc. rep. gradient        (SHARK) ... done (  0.0 sec)
HCore & Overlap gradient  (SHARK) ... done (  0.0 sec)
Split-RIJ-J gradient      (SHARK) ... done (  0.1 sec)
XC gradient                       ... done (  0.1 sec)

------------------
CARTESIAN GRADIENT
------------------

   1   Cl  :    0.000000000    0.000000000   -0.004859295
   2   H   :   -0.000000000   -0.000000000    0.004859295

Difference to translation invariance:
           :   -0.0000000000   -0.0000000000    0.0000000000

Difference to rotation invariance:
           :   -0.0000000000    0.0000000001    0.0000000000

Norm of the Cartesian gradient     ...    0.0068720810
RMS gradient                       ...    0.0028055153
MAX gradient                       ...    0.0048592951

-------
TIMINGS
-------

Total SCF gradient time     ....        0.114 sec

One electron gradient       ....       0.004 sec  (  3.5%)
RI-J Coulomb gradient       ....       0.051 sec  ( 44.7%)
XC gradient                 ....       0.058 sec  ( 50.9%)

Maximum memory used throughout the entire SCFGRAD-calculation: 7.3 MB
------------------------------------------------------------------------------
                         ORCA GEOMETRY RELAXATION STEP
------------------------------------------------------------------------------

Reading the OPT-File                    .... done
Getting information on internals        .... done
Copying old internal coords+grads       .... done
Making the new internal coordinates     .... (2022 redundants) done
Validating the new internal coordinates .... (2022 redundants) done
Calculating the B-matrix                .... done
Calculating the G,G- and P matrices     .... done
Transforming gradient to internals      .... done
Projecting the internal gradient        .... done
Number of atoms                         ....   2
Number of internal coordinates          ....   1
Current Energy                          ....  -459.319935596 Eh
Current gradient norm                   ....     0.006872081 Eh/bohr
Maximum allowed component of the step   ....  0.300
Current trust radius                    ....  0.300
Evaluating the initial hessian          ....  (Almloef) done
Projecting the Hessian                  .... done
Forming the augmented Hessian           .... done
Diagonalizing the augmented Hessian     .... done
Last element of RFO vector              ....  0.999925826
Lowest eigenvalues of augmented Hessian:
 -0.000059189
Length of the computed step             ....  0.012180513
The final length of the internal step   ....  0.012180513
Converting the step to Cartesian space:
 Initial RMS(Int)=    0.0121805130
Transforming coordinates:
 Iter   0:  RMS(Cart)=    0.0035162112 RMS(Int)=    0.0121805130
done
Storing new coordinates                 .... done

                                .--------------------.
          ----------------------|Geometry convergence|-------------------------
          Item                value                   Tolerance       Converged
          ---------------------------------------------------------------------
          RMS gradient        0.0048592951            0.0000100000      NO
          MAX gradient        0.0048592951            0.0001000000      NO
          RMS step            0.0121805130            0.0000100000      NO
          MAX step            0.0121805130            0.0001000000      NO
          ........................................................
          Max(Bonds)      0.0064      Max(Angles)    0.00
          Max(Dihed)        0.00      Max(Improp)    0.00
          ---------------------------------------------------------------------

The optimization has not yet converged - more geometry cycles are needed


    ---------------------------------------------------------------------------
                         Redundant Internal Coordinates
                            (Angstroem and degrees)

        Definition                    Value    dE/dq     Step     New-Value
    ----------------------------------------------------------------------------
     1. B(H   1,Cl  0)                1.2822 -0.004859  0.0064    1.2886   
    ----------------------------------------------------------------------------

Geometry step timings:
Preparation and reading OPT file:      0.000 s ( 0.000 %)
Internal coordinates            :      0.000 s ( 0.000 %)
B/P matrices and projection     :      0.000 s ( 0.000 %)
Hessian update/contruction      :      0.001 s (50.000 %)
Making the step                 :      0.001 s (50.000 %)
Converting the step to Cartesian:      0.000 s ( 0.000 %)
Storing new data                :      0.000 s ( 0.000 %)
Checking convergence            :      0.000 s ( 0.000 %)
Final printing                  :      0.000 s ( 0.000 %)
Total time                      :      0.002 s

Time for energy+gradient        :      1.405 s
Time for complete geometry iter :      1.458 s

         *************************************************************
         *                GEOMETRY OPTIMIZATION CYCLE   2            *
         *************************************************************
---------------------------------
CARTESIAN COORDINATES (ANGSTROEM)
---------------------------------
  Cl     0.000000    0.000000    0.077367
  H      0.000000    0.000000   -1.211237

----------------------------
CARTESIAN COORDINATES (A.U.)
----------------------------
  NO LB      ZA    FRAG     MASS         X           Y           Z
   0 Cl   17.0000    0    35.453    0.000000    0.000000    0.146202
   1 H     1.0000    0     1.008    0.000000    0.000000   -2.288906

--------------------------------
INTERNAL COORDINATES (ANGSTROEM)
--------------------------------
 Cl     0   0   0     0.000000000000     0.00000000     0.00000000
 H      1   0   0     1.288603649864     0.00000000     0.00000000

---------------------------
INTERNAL COORDINATES (A.U.)
---------------------------
 Cl     0   0   0     0.000000000000     0.00000000     0.00000000
 H      1   0   0     2.435107993414     0.00000000     0.00000000

------------------------------------------------------------------------------
                   ___                                                        
                  /   \      - P O W E R E D   B Y -                         
                 /     \                                                     
                 |  |  |   _    _      __       _____    __    __             
                 |  |  |  | |  | |    /  \     |  _  \  |  |  /  |          
                  \  \/   | |  | |   /    \    | | | |  |  | /  /          
                 / \  \   | |__| |  /  /\  \   | |_| |  |  |/  /          
                |  |  |   |  __  | /  /__\  \  |    /   |      \           
                |  |  |   | |  | | |   __   |  |    \   |  |\   \          
                \     /   | |  | | |  |  |  |  | |\  \  |  | \   \       
                 \___/    |_|  |_| |__|  |__|  |_| \__\ |__|  \__/        
                                                                              
                      - O R C A' S   B I G   F R I E N D -                    
                                      &                                       
                       - I N T E G R A L  F E E D E R -                       
                                                                              
 v1 FN, 2020, v2 2021, v3 2022-2024                                           
------------------------------------------------------------------------------


----------------------
SHARK INTEGRAL PACKAGE
----------------------

Number of atoms                             ...      2
Number of basis functions                   ...     56
Number of shells                            ...     20
Maximum angular momentum                    ...      3
Integral batch strategy                     ... SHARK/LIBINT Hybrid
RI-J (if used) integral strategy            ... SPLIT-RIJ (Revised 2003 algorithm where possible)
Printlevel                                  ...      1
Contraction scheme used                     ... SEGMENTED contraction
Prescreening option                         ... SCHWARTZ
   Thresh                                   ... 1.000e-12
   Tcut                                     ... 1.000e-14
   Tpresel                                  ... 1.000e-14 
Coulomb Range Separation                    ... NOT USED
Exchange Range Separation                   ... NOT USED
Multipole approximations                    ... NOT USED
Finite Nucleus Model                        ... NOT USED
CABS basis                                  ... NOT available
Auxiliary Coulomb fitting basis             ... AVAILABLE
   # of basis functions in Aux-J            ...     62
   # of shells in Aux-J                     ...     22
   Maximum angular momentum in Aux-J        ...      4
Auxiliary J/K fitting basis                 ... NOT available
Auxiliary Correlation fitting basis         ... NOT available
Auxiliary 'external' fitting basis          ... NOT available

Checking pre-screening integrals            ... done (  0.0 sec) Dimension = 20
Check shell pair data                       ... done (  0.0 sec)
Shell pair information
Shell pair cut-off parameter TPreSel        ...   1.0e-14
Total number of shell pairs                 ...       210
Shell pairs after pre-screening             ...       210
Total number of primitive shell pairs       ...       668
Primitive shell pairs kept                  ...       654
          la=0 lb=0:     36 shell pairs
          la=1 lb=0:     56 shell pairs
          la=1 lb=1:     28 shell pairs
          la=2 lb=0:     32 shell pairs
          la=2 lb=1:     28 shell pairs
          la=2 lb=2:     10 shell pairs
          la=3 lb=0:      8 shell pairs
          la=3 lb=1:      7 shell pairs
          la=3 lb=2:      4 shell pairs
          la=3 lb=3:      1 shell pairs

Calculating one electron integrals          ... done (  0.0 sec)
Calculating RI/J V-Matrix + Cholesky decomp.... done (  0.0 sec)
Calculating Nuclear repulsion               ... done (  0.0 sec) ENN=      6.981209887190 Eh

Diagonalization of the overlap matrix:
Smallest eigenvalue                        ... 4.120e-03
Time for diagonalization                   ...    0.000 sec
Threshold for overlap eigenvalues          ... 1.000e-07
Number of eigenvalues below threshold      ... 0
Time for construction of square roots      ...    0.001 sec
Total time needed                          ...    0.005 sec

-------------------
DFT GRID GENERATION
-------------------

General Integration Accuracy     IntAcc      ... 4.388
Radial Grid Type                 RadialGrid  ... OptM3 with GC (2021)
Angular Grid (max. ang.)         AngularGrid ... 4 (Lebedev-302)
Angular grid pruning method      GridPruning ... 4 (adaptive)
Weight generation scheme         WeightScheme... mBecke (2022)
Basis function cutoff            BFCut       ... 1.0000e-12
Integration weight cutoff        WCut        ... 1.0000e-14
Partially contracted basis set               ... off
Rotationally invariant grid construction     ... off
Angular grids for H and He will be reduced by one unit

Total number of grid points                  ...    10685
Total number of batches                      ...      167
Average number of points per batch           ...       63
Average number of grid points per atom       ...     5343
Initializing property integral containers    ... done (  0.0 sec)

SHARK setup successfully completed in   0.1 seconds

Maximum memory used throughout the entire STARTUP-calculation: 15.1 MB
Occupation numbers will be reassigned to an Aufbau configuration
             **** ENERGY FILE WAS UPDATED (HCl_Opt_Geom-LDA.en.tmp) ****
Finished Guess after   0.1 sec
Maximum memory used throughout the entire GUESS-calculation: 7.3 MB
----------------------------------------D-I-I-S--------------------------------------------
Iteration    Energy (Eh)           Delta-E    RMSDP     MaxDP     DIISErr   Damp  Time(sec)
-------------------------------------------------------------------------------------------
               ***  Starting incremental Fock matrix formation  ***
                              *** Initializing SOSCF ***
---------------------------------------S-O-S-C-F--------------------------------------
Iteration    Energy (Eh)           Delta-E    RMSDP     MaxDP     MaxGrad    Time(sec)
--------------------------------------------------------------------------------------
    1    -459.3199638597677108     0.00e+00  8.06e-05  1.02e-03  2.47e-04     0.1
               *** Restarting incremental Fock matrix formation ***
    2    -459.3199704921157718    -6.63e-06  4.42e-05  7.25e-04  2.34e-04     0.1
    3    -459.3199704157443080     7.64e-08  1.85e-05  2.13e-04  2.65e-04     0.1
    4    -459.3199709911201580    -5.75e-07  7.09e-06  1.63e-04  2.59e-05     0.1
    5    -459.3199709897727985     1.35e-09  3.57e-06  7.74e-05  2.60e-05     0.1
    6    -459.3199709963645887    -6.59e-09  1.57e-07  2.65e-06  1.07e-06     0.1
    7    -459.3199709963550390     9.55e-12  4.12e-08  6.67e-07  3.39e-07     0.1
                 **** Energy Check signals convergence ****

               *****************************************************
               *                     SUCCESS                       *
               *           SCF CONVERGED AFTER   7 CYCLES          *
               *****************************************************

             **** ENERGY FILE WAS UPDATED (HCl_Opt_Geom-LDA.en.tmp) ****

----------------
TOTAL SCF ENERGY
----------------

Total Energy       :       -459.31997099635504 Eh          -12498.73183 eV

Components:
Nuclear Repulsion  :          6.98120988719035 Eh             189.96838 eV
Electronic Energy  :       -466.30118088354538 Eh          -12688.70021 eV
One Electron Energy:       -649.80794351074042 Eh          -17682.17309 eV
Two Electron Energy:        183.50676262719503 Eh            4993.47287 eV

Virial components:
Potential Energy   :       -919.03532389568136 Eh          -25008.22256 eV
Kinetic Energy     :        459.71535289932638 Eh           12509.49072 eV
Virial Ratio       :          1.99913994192172

DFT components:
N(Alpha)           :        9.000000183934 electrons
N(Beta)            :        9.000000183934 electrons
N(Total)           :       18.000000367869 electrons
E(X)               :      -25.691556904228 Eh       
E(C)               :       -1.385604540672 Eh       
E(XC)              :      -27.077161444900 Eh       

---------------
SCF CONVERGENCE
---------------

  Last Energy change         ...   -9.5497e-12  Tolerance :   1.0000e-09
  Last MAX-Density change    ...    6.6719e-07  Tolerance :   1.0000e-08
  Last RMS-Density change    ...    4.1247e-08  Tolerance :   1.0000e-09
  Last DIIS Error            ...    2.5838e-03  Tolerance :   1.0000e-08
  Last Orbital Gradient      ...    3.3925e-07  Tolerance :   2.0000e-06
  Last Orbital Rotation      ...    4.0870e-07  Tolerance :   2.0000e-06


Total SCF time: 0 days 0 hours 0 min 0 sec 
Finished LeanSCF after   0.6 sec

Maximum memory used throughout the entire LEANSCF-calculation: 5.2 MB

-------------------------   --------------------
FINAL SINGLE POINT ENERGY      -459.319970996355
-------------------------   --------------------

------------------------------------------------------------------------------
                         ORCA SCF GRADIENT CALCULATION
------------------------------------------------------------------------------

Nuc. rep. gradient        (SHARK) ... done (  0.0 sec)
HCore & Overlap gradient  (SHARK) ... done (  0.0 sec)
Split-RIJ-J gradient      (SHARK) ... done (  0.0 sec)
XC gradient                       ... done (  0.1 sec)

------------------
CARTESIAN GRADIENT
------------------

   1   Cl  :    0.000000000    0.000000000   -0.000976325
   2   H   :   -0.000000000   -0.000000000    0.000976325

Difference to translation invariance:
           :   -0.0000000000    0.0000000000   -0.0000000000

Difference to rotation invariance:
           :   -0.0000000001    0.0000000002    0.0000000000

Norm of the Cartesian gradient     ...    0.0013807327
RMS gradient                       ...    0.0005636818
MAX gradient                       ...    0.0009763254

-------
TIMINGS
-------

Total SCF gradient time     ....        0.110 sec

One electron gradient       ....       0.004 sec  (  3.6%)
RI-J Coulomb gradient       ....       0.049 sec  ( 44.5%)
XC gradient                 ....       0.057 sec  ( 51.8%)

Maximum memory used throughout the entire SCFGRAD-calculation: 7.3 MB
------------------------------------------------------------------------------
                         ORCA GEOMETRY RELAXATION STEP
------------------------------------------------------------------------------

Reading the OPT-File                    .... done
Getting information on internals        .... done
Copying old internal coords+grads       .... done
Making the new internal coordinates     .... (2022 redundants) done
Validating the new internal coordinates .... (2022 redundants) done
Calculating the B-matrix                .... done
Calculating the G,G- and P matrices     .... done
Transforming gradient to internals      .... done
Projecting the internal gradient        .... done
Number of atoms                         ....   2
Number of internal coordinates          ....   1
Current Energy                          ....  -459.319970996 Eh
Current gradient norm                   ....     0.001380733 Eh/bohr
Maximum allowed component of the step   ....  0.300
Current trust radius                    ....  0.300
Updating the Hessian (BFGS)             .... done
Forming the augmented Hessian           .... done
Diagonalizing the augmented Hessian     .... done
Last element of RFO vector              ....  0.999995310
Lowest eigenvalues of augmented Hessian:
 -0.000002990
Length of the computed step             ....  0.003062613
The final length of the internal step   ....  0.003062613
Converting the step to Cartesian space:
 Initial RMS(Int)=    0.0030626130
Transforming coordinates:
 Iter   0:  RMS(Cart)=    0.0008841002 RMS(Int)=    0.0030626130
done
Storing new coordinates                 .... done
The predicted energy change is          ....    -0.000001495
Previously predicted energy change      ....    -0.000029599
Actually observed energy change         ....    -0.000035400
Ratio of predicted to observed change   ....     1.196004828
New trust radius                        ....     0.450000000

                                .--------------------.
          ----------------------|Geometry convergence|-------------------------
          Item                value                   Tolerance       Converged
          ---------------------------------------------------------------------
          Energy change      -0.0000354002            0.0000010000      NO
          RMS gradient        0.0009763254            0.0000100000      NO
          MAX gradient        0.0009763254            0.0001000000      NO
          RMS step            0.0030626130            0.0000100000      NO
          MAX step            0.0030626130            0.0001000000      NO
          ........................................................
          Max(Bonds)      0.0016      Max(Angles)    0.00
          Max(Dihed)        0.00      Max(Improp)    0.00
          ---------------------------------------------------------------------

The optimization has not yet converged - more geometry cycles are needed


    ---------------------------------------------------------------------------
                         Redundant Internal Coordinates
                            (Angstroem and degrees)

        Definition                    Value    dE/dq     Step     New-Value
    ----------------------------------------------------------------------------
     1. B(H   1,Cl  0)                1.2886 -0.000976  0.0016    1.2902   
    ----------------------------------------------------------------------------

Geometry step timings:
Preparation and reading OPT file:      0.000 s ( 0.000 %)
Internal coordinates            :      0.000 s ( 0.000 %)
B/P matrices and projection     :      0.000 s ( 0.000 %)
Hessian update/contruction      :      0.001 s (50.000 %)
Making the step                 :      0.000 s ( 0.000 %)
Converting the step to Cartesian:      0.000 s ( 0.000 %)
Storing new data                :      0.000 s ( 0.000 %)
Checking convergence            :      0.000 s ( 0.000 %)
Final printing                  :      0.001 s (50.000 %)
Total time                      :      0.002 s

Time for energy+gradient        :      0.935 s
Time for complete geometry iter :      0.975 s

         *************************************************************
         *                GEOMETRY OPTIMIZATION CYCLE   3            *
         *************************************************************
---------------------------------
CARTESIAN COORDINATES (ANGSTROEM)
---------------------------------
  Cl     0.000000    0.000000    0.078177
  H      0.000000    0.000000   -1.212047

----------------------------
CARTESIAN COORDINATES (A.U.)
----------------------------
  NO LB      ZA    FRAG     MASS         X           Y           Z
   0 Cl   17.0000    0    35.453    0.000000    0.000000    0.147733
   1 H     1.0000    0     1.008    0.000000    0.000000   -2.290437

--------------------------------
INTERNAL COORDINATES (ANGSTROEM)
--------------------------------
 Cl     0   0   0     0.000000000000     0.00000000     0.00000000
 H      1   0   0     1.290224314838     0.00000000     0.00000000

---------------------------
INTERNAL COORDINATES (A.U.)
---------------------------
 Cl     0   0   0     0.000000000000     0.00000000     0.00000000
 H      1   0   0     2.438170606371     0.00000000     0.00000000

------------------------------------------------------------------------------
                   ___                                                        
                  /   \      - P O W E R E D   B Y -                         
                 /     \                                                     
                 |  |  |   _    _      __       _____    __    __             
                 |  |  |  | |  | |    /  \     |  _  \  |  |  /  |          
                  \  \/   | |  | |   /    \    | | | |  |  | /  /          
                 / \  \   | |__| |  /  /\  \   | |_| |  |  |/  /          
                |  |  |   |  __  | /  /__\  \  |    /   |      \           
                |  |  |   | |  | | |   __   |  |    \   |  |\   \          
                \     /   | |  | | |  |  |  |  | |\  \  |  | \   \       
                 \___/    |_|  |_| |__|  |__|  |_| \__\ |__|  \__/        
                                                                              
                      - O R C A' S   B I G   F R I E N D -                    
                                      &                                       
                       - I N T E G R A L  F E E D E R -                       
                                                                              
 v1 FN, 2020, v2 2021, v3 2022-2024                                           
------------------------------------------------------------------------------


----------------------
SHARK INTEGRAL PACKAGE
----------------------

Number of atoms                             ...      2
Number of basis functions                   ...     56
Number of shells                            ...     20
Maximum angular momentum                    ...      3
Integral batch strategy                     ... SHARK/LIBINT Hybrid
RI-J (if used) integral strategy            ... SPLIT-RIJ (Revised 2003 algorithm where possible)
Printlevel                                  ...      1
Contraction scheme used                     ... SEGMENTED contraction
Prescreening option                         ... SCHWARTZ
   Thresh                                   ... 1.000e-12
   Tcut                                     ... 1.000e-14
   Tpresel                                  ... 1.000e-14 
Coulomb Range Separation                    ... NOT USED
Exchange Range Separation                   ... NOT USED
Multipole approximations                    ... NOT USED
Finite Nucleus Model                        ... NOT USED
CABS basis                                  ... NOT available
Auxiliary Coulomb fitting basis             ... AVAILABLE
   # of basis functions in Aux-J            ...     62
   # of shells in Aux-J                     ...     22
   Maximum angular momentum in Aux-J        ...      4
Auxiliary J/K fitting basis                 ... NOT available
Auxiliary Correlation fitting basis         ... NOT available
Auxiliary 'external' fitting basis          ... NOT available

Checking pre-screening integrals            ... done (  0.0 sec) Dimension = 20
Check shell pair data                       ... done (  0.0 sec)
Shell pair information
Shell pair cut-off parameter TPreSel        ...   1.0e-14
Total number of shell pairs                 ...       210
Shell pairs after pre-screening             ...       210
Total number of primitive shell pairs       ...       668
Primitive shell pairs kept                  ...       653
          la=0 lb=0:     36 shell pairs
          la=1 lb=0:     56 shell pairs
          la=1 lb=1:     28 shell pairs
          la=2 lb=0:     32 shell pairs
          la=2 lb=1:     28 shell pairs
          la=2 lb=2:     10 shell pairs
          la=3 lb=0:      8 shell pairs
          la=3 lb=1:      7 shell pairs
          la=3 lb=2:      4 shell pairs
          la=3 lb=3:      1 shell pairs

Calculating one electron integrals          ... done (  0.0 sec)
Calculating RI/J V-Matrix + Cholesky decomp.... done (  0.0 sec)
Calculating Nuclear repulsion               ... done (  0.0 sec) ENN=      6.972440712549 Eh

Diagonalization of the overlap matrix:
Smallest eigenvalue                        ... 4.147e-03
Time for diagonalization                   ...    0.000 sec
Threshold for overlap eigenvalues          ... 1.000e-07
Number of eigenvalues below threshold      ... 0
Time for construction of square roots      ...    0.001 sec
Total time needed                          ...    0.005 sec

-------------------
DFT GRID GENERATION
-------------------

General Integration Accuracy     IntAcc      ... 4.388
Radial Grid Type                 RadialGrid  ... OptM3 with GC (2021)
Angular Grid (max. ang.)         AngularGrid ... 4 (Lebedev-302)
Angular grid pruning method      GridPruning ... 4 (adaptive)
Weight generation scheme         WeightScheme... mBecke (2022)
Basis function cutoff            BFCut       ... 1.0000e-12
Integration weight cutoff        WCut        ... 1.0000e-14
Partially contracted basis set               ... off
Rotationally invariant grid construction     ... off
Angular grids for H and He will be reduced by one unit

Total number of grid points                  ...    10685
Total number of batches                      ...      167
Average number of points per batch           ...       63
Average number of grid points per atom       ...     5343
Initializing property integral containers    ... done (  0.0 sec)

SHARK setup successfully completed in   0.1 seconds

Maximum memory used throughout the entire STARTUP-calculation: 15.1 MB
Occupation numbers will be reassigned to an Aufbau configuration
             **** ENERGY FILE WAS UPDATED (HCl_Opt_Geom-LDA.en.tmp) ****
Finished Guess after   0.1 sec
Maximum memory used throughout the entire GUESS-calculation: 7.3 MB
----------------------------------------D-I-I-S--------------------------------------------
Iteration    Energy (Eh)           Delta-E    RMSDP     MaxDP     DIISErr   Damp  Time(sec)
-------------------------------------------------------------------------------------------
               ***  Starting incremental Fock matrix formation  ***
                              *** Initializing SOSCF ***
---------------------------------------S-O-S-C-F--------------------------------------
Iteration    Energy (Eh)           Delta-E    RMSDP     MaxDP     MaxGrad    Time(sec)
--------------------------------------------------------------------------------------
    1    -459.3199720775522792     0.00e+00  2.02e-05  2.56e-04  6.19e-05     0.1
               *** Restarting incremental Fock matrix formation ***
    2    -459.3199724908628809    -4.13e-07  1.11e-05  1.83e-04  5.85e-05     0.1
    3    -459.3199724862050175     4.66e-09  4.61e-06  5.32e-05  6.89e-05     0.1
    4    -459.3199725220946448    -3.59e-08  1.78e-06  4.10e-05  5.79e-06     0.1
    5    -459.3199725220087544     8.59e-11  8.99e-07  1.95e-05  7.26e-06     0.1
                 **** Energy Check signals convergence ****

               *****************************************************
               *                     SUCCESS                       *
               *           SCF CONVERGED AFTER   5 CYCLES          *
               *****************************************************

             **** ENERGY FILE WAS UPDATED (HCl_Opt_Geom-LDA.en.tmp) ****

----------------
TOTAL SCF ENERGY
----------------

Total Energy       :       -459.31997252200875 Eh          -12498.73188 eV

Components:
Nuclear Repulsion  :          6.97244071254909 Eh             189.72976 eV
Electronic Energy  :       -466.29241323455784 Eh          -12688.46163 eV
One Electron Energy:       -649.79110871422267 Eh          -17681.71499 eV
Two Electron Energy:        183.49869547966483 Eh            4993.25336 eV

Virial components:
Potential Energy   :       -919.03307812052412 Eh          -25008.16145 eV
Kinetic Energy     :        459.71310559851543 Eh           12509.42957 eV
Virial Ratio       :          1.99914482952146

DFT components:
N(Alpha)           :        9.000000183556 electrons
N(Beta)            :        9.000000183556 electrons
N(Total)           :       18.000000367113 electrons
E(X)               :      -25.691030348234 Eh       
E(C)               :       -1.385573017740 Eh       
E(XC)              :      -27.076603365975 Eh       

---------------
SCF CONVERGENCE
---------------

  Last Energy change         ...   -8.5890e-11  Tolerance :   1.0000e-09
  Last MAX-Density change    ...    1.9466e-05  Tolerance :   1.0000e-08
  Last RMS-Density change    ...    8.9948e-07  Tolerance :   1.0000e-09
  Last DIIS Error            ...    6.2977e-04  Tolerance :   1.0000e-08
  Last Orbital Gradient      ...    7.2636e-06  Tolerance :   2.0000e-06
  Last Orbital Rotation      ...    5.7141e-06  Tolerance :   2.0000e-06


Total SCF time: 0 days 0 hours 0 min 0 sec 
Finished LeanSCF after   0.4 sec

Maximum memory used throughout the entire LEANSCF-calculation: 5.3 MB

-------------------------   --------------------
FINAL SINGLE POINT ENERGY      -459.319972522009
-------------------------   --------------------

------------------------------------------------------------------------------
                         ORCA SCF GRADIENT CALCULATION
------------------------------------------------------------------------------

Nuc. rep. gradient        (SHARK) ... done (  0.0 sec)
HCore & Overlap gradient  (SHARK) ... done (  0.0 sec)
Split-RIJ-J gradient      (SHARK) ... done (  0.1 sec)
XC gradient                       ... done (  0.1 sec)

------------------
CARTESIAN GRADIENT
------------------

   1   Cl  :    0.000000000   -0.000000000   -0.000021830
   2   H   :   -0.000000000    0.000000000    0.000021830

Difference to translation invariance:
           :   -0.0000000000    0.0000000000    0.0000000000

Difference to rotation invariance:
           :    0.0000000000    0.0000000001    0.0000000000

Norm of the Cartesian gradient     ...    0.0000308726
RMS gradient                       ...    0.0000126037
MAX gradient                       ...    0.0000218302

-------
TIMINGS
-------

Total SCF gradient time     ....        0.112 sec

One electron gradient       ....       0.003 sec  (  2.7%)
RI-J Coulomb gradient       ....       0.050 sec  ( 44.6%)
XC gradient                 ....       0.059 sec  ( 52.7%)

Maximum memory used throughout the entire SCFGRAD-calculation: 7.3 MB
------------------------------------------------------------------------------
                         ORCA GEOMETRY RELAXATION STEP
------------------------------------------------------------------------------

Reading the OPT-File                    .... done
Getting information on internals        .... done
Copying old internal coords+grads       .... done
Making the new internal coordinates     .... (2022 redundants) done
Validating the new internal coordinates .... (2022 redundants) done
Calculating the B-matrix                .... done
Calculating the G,G- and P matrices     .... done
Transforming gradient to internals      .... done
Projecting the internal gradient        .... done
Number of atoms                         ....   2
Number of internal coordinates          ....   1
Current Energy                          ....  -459.319972522 Eh
Current gradient norm                   ....     0.000030873 Eh/bohr
Maximum allowed component of the step   ....  0.300
Current trust radius                    ....  0.450
Updating the Hessian (BFGS)             .... done
Forming the augmented Hessian           .... done
Diagonalizing the augmented Hessian     .... done
Last element of RFO vector              ....  0.999999998
Lowest eigenvalues of augmented Hessian:
 -0.000000002
Length of the computed step             ....  0.000070045
The final length of the internal step   ....  0.000070045
Converting the step to Cartesian space:
 Initial RMS(Int)=    0.0000700450
Transforming coordinates:
 Iter   0:  RMS(Cart)=    0.0000202202 RMS(Int)=    0.0000700450
done
Storing new coordinates                 .... done
The predicted energy change is          ....    -0.000000001
Previously predicted energy change      ....    -0.000001495
Actually observed energy change         ....    -0.000001526
Ratio of predicted to observed change   ....     1.020458425
New trust radius                        ....     0.675000000

                                .--------------------.
          ----------------------|Geometry convergence|-------------------------
          Item                value                   Tolerance       Converged
          ---------------------------------------------------------------------
          Energy change      -0.0000015257            0.0000010000      NO
          RMS gradient        0.0000218302            0.0000100000      NO
          MAX gradient        0.0000218302            0.0001000000      YES
          RMS step            0.0000700450            0.0000100000      NO
          MAX step            0.0000700450            0.0001000000      YES
          ........................................................
          Max(Bonds)      0.0000      Max(Angles)    0.00
          Max(Dihed)        0.00      Max(Improp)    0.00
          ---------------------------------------------------------------------

The optimization has not yet converged - more geometry cycles are needed


    ---------------------------------------------------------------------------
                         Redundant Internal Coordinates
                            (Angstroem and degrees)

        Definition                    Value    dE/dq     Step     New-Value
    ----------------------------------------------------------------------------
     1. B(H   1,Cl  0)                1.2902 -0.000022  0.0000    1.2903   
    ----------------------------------------------------------------------------

Geometry step timings:
Preparation and reading OPT file:      0.000 s ( 0.000 %)
Internal coordinates            :      0.000 s ( 0.000 %)
B/P matrices and projection     :      0.000 s ( 0.000 %)
Hessian update/contruction      :      0.001 s (50.000 %)
Making the step                 :      0.000 s ( 0.000 %)
Converting the step to Cartesian:      0.000 s ( 0.000 %)
Storing new data                :      0.000 s ( 0.000 %)
Checking convergence            :      0.000 s ( 0.000 %)
Final printing                  :      0.001 s (50.000 %)
Total time                      :      0.002 s

Time for energy+gradient        :      0.809 s
Time for complete geometry iter :      0.850 s

         *************************************************************
         *                GEOMETRY OPTIMIZATION CYCLE   4            *
         *************************************************************
---------------------------------
CARTESIAN COORDINATES (ANGSTROEM)
---------------------------------
  Cl     0.000000    0.000000    0.078196
  H      0.000000    0.000000   -1.212066

----------------------------
CARTESIAN COORDINATES (A.U.)
----------------------------
  NO LB      ZA    FRAG     MASS         X           Y           Z
   0 Cl   17.0000    0    35.453    0.000000    0.000000    0.147768
   1 H     1.0000    0     1.008    0.000000    0.000000   -2.290472

--------------------------------
INTERNAL COORDINATES (ANGSTROEM)
--------------------------------
 Cl     0   0   0     0.000000000000     0.00000000     0.00000000
 H      1   0   0     1.290261381036     0.00000000     0.00000000

---------------------------
INTERNAL COORDINATES (A.U.)
---------------------------
 Cl     0   0   0     0.000000000000     0.00000000     0.00000000
 H      1   0   0     2.438240651333     0.00000000     0.00000000

------------------------------------------------------------------------------
                   ___                                                        
                  /   \      - P O W E R E D   B Y -                         
                 /     \                                                     
                 |  |  |   _    _      __       _____    __    __             
                 |  |  |  | |  | |    /  \     |  _  \  |  |  /  |          
                  \  \/   | |  | |   /    \    | | | |  |  | /  /          
                 / \  \   | |__| |  /  /\  \   | |_| |  |  |/  /          
                |  |  |   |  __  | /  /__\  \  |    /   |      \           
                |  |  |   | |  | | |   __   |  |    \   |  |\   \          
                \     /   | |  | | |  |  |  |  | |\  \  |  | \   \       
                 \___/    |_|  |_| |__|  |__|  |_| \__\ |__|  \__/        
                                                                              
                      - O R C A' S   B I G   F R I E N D -                    
                                      &                                       
                       - I N T E G R A L  F E E D E R -                       
                                                                              
 v1 FN, 2020, v2 2021, v3 2022-2024                                           
------------------------------------------------------------------------------


----------------------
SHARK INTEGRAL PACKAGE
----------------------

Number of atoms                             ...      2
Number of basis functions                   ...     56
Number of shells                            ...     20
Maximum angular momentum                    ...      3
Integral batch strategy                     ... SHARK/LIBINT Hybrid
RI-J (if used) integral strategy            ... SPLIT-RIJ (Revised 2003 algorithm where possible)
Printlevel                                  ...      1
Contraction scheme used                     ... SEGMENTED contraction
Prescreening option                         ... SCHWARTZ
   Thresh                                   ... 1.000e-12
   Tcut                                     ... 1.000e-14
   Tpresel                                  ... 1.000e-14 
Coulomb Range Separation                    ... NOT USED
Exchange Range Separation                   ... NOT USED
Multipole approximations                    ... NOT USED
Finite Nucleus Model                        ... NOT USED
[...]
   Startup error        DIISStart       ....  0.200000
   # of expansion vecs  DIISMaxEq       ....     5
   Bias factor          DIISBfac        ....   1.050
   Max. coefficient     DIISMaxC        ....  10.000
 MO-DIIS                CNVKDIIS        .... off
 Trust-Rad. Augm. Hess. CNVTRAH         .... auto
   Auto Start mean grad. ratio tolernc. ....  1.125000
   Auto Start start iteration           ....     1
   Auto Start num. interpolation iter.  ....    10
   Max. Number of Micro iterations      ....    24
   Max. Number of Macro iterations      .... Maxiter - #DIIS iter
   Number of Davidson start vectors     ....     2
   Converg. threshold    (grad. norm)   ....   2.000e-06
   Grad. Scal. Fac. for Micro threshold ....   0.100
   Minimum threshold for Micro iter.    ....   1.000e-02
   NR start threshold (gradient norm)   ....   1.000e-04
   Initial trust radius                 ....   0.400
   Minimum AH scaling param. (alpha)    ....   1.000
   Maximum AH scaling param. (alpha)    .... 1000.000
   Quad. conv. algorithm                .... NR
   White noise on init. David. guess    .... on
   Maximum white noise                  ....   0.010
   Pseudo random numbers                .... off
   Inactive MOs                         .... canonical
   Orbital update algorithm             .... Taylor
   Preconditioner                       .... Diag
   Full preconditioner red. dimension   ....   250
 SOSCF                  CNVSOSCF        .... on
   Start iteration      SOSCFMaxIt      ....   150
   Startup grad/error   SOSCFStart      ....  0.003300
   Hessian update       SOSCFHessUp     .... L-BFGS
 Level Shifting         CNVShift        .... on
   Level shift para.    LevelShift      ....    0.2500
   Turn off err/grad.   ShiftErr        ....    0.0010
 Zerner damping         CNVZerner       .... off
 Static damping         CNVDamp         .... on
   Fraction old density DampFac         ....    0.7000
   Max. Damping (<1)    DampMax         ....    0.9800
   Min. Damping (>=0)   DampMin         ....    0.0000
   Turn off err/grad.   DampErr         ....    0.1000

SCF Procedure:
 Maximum # iterations   MaxIter         ....   400
 SCF integral mode      SCFMode         .... Direct
   Integral package                     .... SHARK and LIBINT hybrid scheme
 Reset frequency        DirectResetFreq ....    20
 Integral Threshold     Thresh          ....  1.000e-12 Eh
 Primitive CutOff       TCut            ....  1.000e-14 Eh

Convergence Tolerance:
 Convergence Check Mode ConvCheckMode   .... Total+1el-Energy
 Convergence forced     ConvForced      .... 0
 Energy Change          TolE            ....  1.000e-09 Eh
 1-El. energy change                    ....  1.000e-06 Eh
 Orbital Gradient       TolG            ....  2.000e-06
 Orbital Rotation angle TolX            ....  2.000e-06
 DIIS Error             TolErr          ....  1.000e-08

---------------------
INITIAL GUESS: MOREAD
---------------------
Guess MOs are being read from file: HCl_Opt_Geom-LDA.gbw
Input Geometry matches current geometry (good)
Input basis set matches current basis set (good)
Occupation numbers will be reassigned to an Aufbau configuration
MOs were renormalized
MOs were reorthogonalized (Cholesky)
                      ------------------
                      INITIAL GUESS DONE (   0.0 sec)
                      ------------------
             **** ENERGY FILE WAS UPDATED (HCl_Opt_Geom-LDA.en.tmp) ****
Finished Guess after   0.1 sec
Maximum memory used throughout the entire GUESS-calculation: 7.3 MB

-------------------------------------------------------------------------------------------
                                      ORCA LEAN-SCF
                              memory conserving SCF solver
-------------------------------------------------------------------------------------------

----------------------------------------D-I-I-S--------------------------------------------
Iteration    Energy (Eh)           Delta-E    RMSDP     MaxDP     DIISErr   Damp  Time(sec)
-------------------------------------------------------------------------------------------
               ***  Starting incremental Fock matrix formation  ***
                              *** Initializing SOSCF ***
---------------------------------------S-O-S-C-F--------------------------------------
Iteration    Energy (Eh)           Delta-E    RMSDP     MaxDP     MaxGrad    Time(sec)
--------------------------------------------------------------------------------------
    1    -459.3199725231792740     0.00e+00  3.33e-08  7.33e-07  4.88e-08     0.1
               *** Restarting incremental Fock matrix formation ***
    2    -459.3199725231791035     1.71e-13  2.57e-08  4.58e-07  1.13e-07     0.1
                  *** Gradient check signals convergence ***

               *****************************************************
               *                     SUCCESS                       *
               *           SCF CONVERGED AFTER   2 CYCLES          *
               *****************************************************

             **** ENERGY FILE WAS UPDATED (HCl_Opt_Geom-LDA.en.tmp) ****

----------------
TOTAL SCF ENERGY
----------------

Total Energy       :       -459.31997252317910 Eh          -12498.73188 eV

Components:
Nuclear Repulsion  :          6.97224441350873 Eh             189.72442 eV
Electronic Energy  :       -466.29221693668785 Eh          -12688.45629 eV
One Electron Energy:       -649.79105464748363 Eh          -17681.71352 eV
Two Electron Energy:        183.49883771079581 Eh            4993.25723 eV

Virial components:
Potential Energy   :       -919.03303436919850 Eh          -25008.16026 eV
Kinetic Energy     :        459.71306184601940 Eh           12509.42838 eV
Virial Ratio       :          1.99914492461610

DFT components:
N(Alpha)           :        9.000000183545 electrons
N(Beta)            :        9.000000183545 electrons
N(Total)           :       18.000000367091 electrons
E(X)               :      -25.691042225813 Eh       
E(C)               :       -1.385573333016 Eh       
E(XC)              :      -27.076615558828 Eh       

---------------
SCF CONVERGENCE
---------------

  Last Energy change         ...   -1.7053e-13  Tolerance :   1.0000e-09
  Last MAX-Density change    ...    4.5844e-07  Tolerance :   1.0000e-08
  Last RMS-Density change    ...    2.5679e-08  Tolerance :   1.0000e-09
  Last DIIS Error            ...    4.4337e-07  Tolerance :   1.0000e-08
  Last Orbital Gradient      ...    1.1255e-07  Tolerance :   2.0000e-06
  Last Orbital Rotation      ...    2.8242e-07  Tolerance :   2.0000e-06


----------------
ORBITAL ENERGIES
----------------

  NO   OCC          E(Eh)            E(eV) 
   0   2.0000    -100.303824     -2729.4058 
   1   2.0000      -9.141401      -248.7502 
   2   2.0000      -7.000203      -190.4852 
   3   2.0000      -6.990161      -190.2120 
   4   2.0000      -6.990161      -190.2120 
   5   2.0000      -0.769981       -20.9523 
   6   2.0000      -0.429229       -11.6799 
   7   2.0000      -0.294924        -8.0253 
   8   2.0000      -0.294924        -8.0253 
   9   0.0000      -0.030719        -0.8359 
  10   0.0000       0.150953         4.1076 
  11   0.0000       0.296219         8.0605 
  12   0.0000       0.296219         8.0605 
  13   0.0000       0.301638         8.2080 
  14   0.0000       0.308426         8.3927 
  15   0.0000       0.308426         8.3927 
  16   0.0000       0.368603        10.0302 
  17   0.0000       0.368603        10.0302 
  18   0.0000       0.549254        14.9460 
  19   0.0000       0.675896        18.3921 
*Only the first 10 virtual orbitals were printed.

                    ********************************
                    * MULLIKEN POPULATION ANALYSIS *
                    ********************************

-----------------------
MULLIKEN ATOMIC CHARGES
-----------------------
   0 Cl:   -0.196212
   1 H :    0.196212
Sum of atomic charges:    0.0000000

--------------------------------
MULLIKEN REDUCED ORBITAL CHARGES
--------------------------------
  0 Cls       :     5.935897  s :     5.935897
      pz      :     3.284482  p :    11.229730
      px      :     3.972624
      py      :     3.972624
      dz2     :     0.024310  d :     0.027977
      dxz     :     0.001834
      dyz     :     0.001834
      dx2y2   :     0.000000
      dxy     :     0.000000
      f0      :     0.002176  f :     0.002608
      f+1     :     0.000216
      f-1     :     0.000216
      f+2     :     0.000000
      f-2     :     0.000000
      f+3     :     0.000000
      f-3     :     0.000000

  1 H s       :     0.735193  s :     0.735193
      pz      :     0.017332  p :     0.065639
      px      :     0.024154
      py      :     0.024154
      dz2     :     0.000610  d :     0.002956
      dxz     :     0.001173
      dyz     :     0.001173
      dx2y2   :     0.000000
      dxy     :     0.000000



                     *******************************
                     * LOEWDIN POPULATION ANALYSIS *
                     *******************************

----------------------
LOEWDIN ATOMIC CHARGES
----------------------
   0 Cl:    0.197015
   1 H :   -0.197015

-------------------------------
LOEWDIN REDUCED ORBITAL CHARGES
-------------------------------
  0 Cls       :     5.603711  s :     5.603711
      pz      :     3.334155  p :    11.158906
      px      :     3.912375
      py      :     3.912375
      dz2     :     0.035735  d :     0.036319
      dxz     :     0.000292
      dyz     :     0.000292
      dx2y2   :     0.000000
      dxy     :     0.000000
      f0      :     0.003864  f :     0.004049
      f+1     :     0.000092
      f-1     :     0.000092
      f+2     :     0.000000
      f-2     :     0.000000
      f+3     :     0.000000
      f-3     :     0.000000

  1 H s       :     0.855859  s :     0.855859
      pz      :     0.149254  p :     0.298056
      px      :     0.074401
      py      :     0.074401
      dz2     :     0.017421  d :     0.043100
      dxz     :     0.012839
      dyz     :     0.012839
      dx2y2   :     0.000000
      dxy     :     0.000000



                      *****************************
                      * MAYER POPULATION ANALYSIS *
                      *****************************

  NA   - Mulliken gross atomic population
  ZA   - Total nuclear charge
  QA   - Mulliken gross atomic charge
  VA   - Mayer's total valence
  BVA  - Mayer's bonded valence
  FA   - Mayer's free valence

  ATOM       NA         ZA         QA         VA         BVA        FA
  0 Cl    17.1962    17.0000    -0.1962     1.0248     1.0248     0.0000
  1 H      0.8038     1.0000     0.1962     1.0248     1.0248     0.0000

  Mayer bond orders larger than 0.100000
B(  0-Cl,  1-H ) :   1.0248 

-------
TIMINGS
-------

Total SCF time: 0 days 0 hours 0 min 0 sec 

Total time                  ....       0.248 sec
Sum of individual times     ....       0.223 sec  ( 89.9%)

SCF preparation             ....       0.040 sec  ( 16.1%)
Fock matrix formation       ....       0.061 sec  ( 24.6%)
  Startup                   ....       0.015 sec  ( 24.6% of F)
  Split-RI-J                ....       0.012 sec  ( 19.7% of F)
  XC integration            ....       0.028 sec  ( 45.9% of F)
    Basis function eval.    ....       0.005 sec  ( 17.9% of XC)
    Density eval.           ....       0.006 sec  ( 21.4% of XC)
    XC-Functional eval.     ....       0.002 sec  (  7.1% of XC)
    XC-Potential eval.      ....       0.009 sec  ( 32.1% of XC)
Diagonalization             ....       0.000 sec  (  0.0%)
Density matrix formation    ....       0.018 sec  (  7.3%)
Total Energy calculation    ....       0.012 sec  (  4.8%)
Population analysis         ....       0.042 sec  ( 16.9%)
Orbital Transformation      ....       0.007 sec  (  2.8%)
Orbital Orthonormalization  ....       0.000 sec  (  0.0%)
DIIS solution               ....       0.019 sec  (  7.7%)
SOSCF solution              ....       0.024 sec  (  9.7%)
Finished LeanSCF after   0.3 sec

Maximum memory used throughout the entire LEANSCF-calculation: 5.4 MB

-------------------------   --------------------
FINAL SINGLE POINT ENERGY      -459.319972523179
-------------------------   --------------------

                                *** OPTIMIZATION RUN DONE ***


------------------------------------------------------------------------------
                              ORCA PROPERTY CALCULATIONS
------------------------------------------------------------------------------

GBWName                                 ... HCl_Opt_Geom-LDA.gbw
Number of atoms                         ...      2
Number of basis functions               ...     56
Max core memory                         ...   4000 MB

Electric properties:
Dipole moment                           ... YES
Quadrupole moment                       ...  NO
Static polarizability (Dipole/Dipole)   ...  NO
Static polarizability (Dipole/Quad.)    ...  NO
Static polarizability (Quad./Quad.)     ...  NO
Static polarizability (Velocity)        ...  NO

Atomic electric properties:
Dipole moment                           ...  NO
Quadrupole moment                       ...  NO
Static polarizability                   ...  NO

Choice of electric origin               ... Center of mass
Position of electric origin             ...     0.000000     0.000000     0.080360

General magnetic properties:
Magnetizability                         ...  NO

EPR properties:
g-Tensor (aka g-matrix)                 ...  NO
Zero-Field splitting spin-orbit         ...  NO
Zero-field splitting spin-spin          ...  NO
Hyperfine couplings                     ...  NO (   0 nuclei)
Quadrupole couplings                    ...  NO (   0 nuclei)
Contact density                         ...  NO (   0 nuclei)

NMR properties:
Chemical shifts                         ...  NO (   0 nuclei)
Spin-rotation constants                 ...  NO (   0 nuclei)
Spin-spin couplings                     ...  NO (   0 nuclei,    0 pairs)

Choice of magnetic origin               ... GIAO
Position of magnetic origin             ...     0.000000     0.000000     0.000000

Properties with geometric perturbations:
SCF Hessian                             ...  NO
IR spectrum                             ...  NO
VCD spectrum                            ...  NO
X-ray spectroscopy properties:
SCF XES/XAS/RIXS spectra                ...  NO


-------------
DIPOLE MOMENT
-------------

Method             : SCF
Type of density    : Electron Density
Multiplicity       :   1
Irrep              :   0
Energy             :  -459.3199725231791035 Eh
Relativity type    : 
Basis              : AO
                                X                 Y                 Z
Electronic contribution:      0.000000000       0.000000000       0.736673359
Nuclear contribution   :      0.000000000       0.000000000      -1.224904099
                        -----------------------------------------
Total Dipole Moment    :      0.000000000       0.000000000      -0.488230740
                        -----------------------------------------
Magnitude (a.u.)       :      0.488230740
Magnitude (Debye)      :      1.240983919



--------------------
Rotational spectrum 
--------------------
 
Rotational constants in cm-1:             0.000000            10.331350            10.331350 
Rotational constants in MHz :             0.000000        309726.067483        309726.067483 

Dipole components along the rotational axes: 
x,y,z [a.u.] :    -0.488231     0.000000     0.000000 
x,y,z [Debye]:    -1.240984     0.000000     0.000000 

 

Dipole moment calculation done in   0.0 sec 

Maximum memory used throughout the entire PROP-calculation: 4.4 MB

--------------------------------
SUGGESTED CITATIONS FOR THIS RUN
--------------------------------

Below you find a list of papers that are relevant to this ORCA run
We neither can nor want to force you to cite these papers, but we appreciate if you do
You receive ORCA, which is the product of decades of hard work by many enthusiastic individuals, for free
The only thing we kindly ask in return is that you cite our papers,
We deeply appreciate it, if you show your appreciation for ORCA by not just citing the generic ORCA reference.

Please note that relegating all ORCA citations to the supporting information does *not* help us.
SI sections are not indexed - citations you put there will not count into any citation statistics
But we need these citations in order to attract the funding resources that allow us to do what we are doing

Therefore, if you are a happy ORCA user, please consider citing a few of the papers listed below in the main body of your paper

In addition to the list printed below, the program has created the file HCl_Opt_Geom-LDA.bibtex that contains the list in bibtex format
You can import this file easily into all common literature databanks and citation aid programs


List of essential papers. We consider these as the minimum necessary citations

  1. Neese,F.
     Software update: the ORCA program system, version 5.0
     WIRES Comput. Molec. Sci., 2022 12(1)e1606
     doi.org/10.1002/wcms.1606

List of papers to cite with high priority. The work reported in these papers was absolutely
necessary for this run to complete.
Our perspective: the developers of density functionals and basis sets usually get cited in chemistry papers
Good! But without the algorithms to do something with them, the functionals or basis sets would not do anything.
Hence, in our opinion, the algorithm design and method developments papers are equally worthy of getting cited

  1. Neese,F.
     An improvement of the resolution of the identity approximation for the formation of the Coulomb matrix
     J. Comp. Chem., 2003 24(14)1740-1747
     doi.org/10.1002/jcc.10318
  2. Neese,F.
     The SHARK Integral Generation and Digestion System
     J. Comp. Chem., 2022  1-16
     doi.org/10.1002/jcc.26942

List of suggested additional citations. These are papers that are important in the 'surrounding' of 
of this run, or papers that preceded the highly important papers. If you like your results we are grateful for a citation.

  1. Neese,F.
     The ORCA program system
     WIRES Comput. Molec. Sci., 2012 2(1)73-78
     doi.org/10.1002/wcms.81
  2. Neese,F.
     Software update: the ORCA program system, version 4.0
     WIRES Comput. Molec. Sci., 2018 8(1)1-6
     doi.org/10.1002/wcms.1327
  3. Neese,F.; Wennmohs,F.; Becker,U.; Riplinger,C.
     The ORCA quantum chemistry program package
     J. Chem. Phys., 2020 152 Art. No. L224108
     doi.org/10.1063/5.0004608

List of optional additional citations

  1. Neese,F.
     Approximate second-order SCF convergence for spin unrestricted wavefunctions
     Chem. Phys. Lett., 2000 325(1-3)93-98
     doi.org/10.1016/s0009-2614(00)00662-x

Timings for individual modules:

Sum of individual times          ...        4.347 sec (=   0.072 min)
Startup calculation              ...        0.574 sec (=   0.010 min)  13.2 %
SCF iterations                   ...        3.088 sec (=   0.051 min)  71.0 %
Property calculations            ...        0.053 sec (=   0.001 min)   1.2 %
SCF Gradient evaluation          ...        0.604 sec (=   0.010 min)  13.9 %
Geometry relaxation              ...        0.028 sec (=   0.000 min)   0.6 %
                             ****ORCA TERMINATED NORMALLY****
TOTAL RUN TIME: 0 days 0 hours 0 minutes 4 seconds 641 msec
