
                                 *****************
                                 * O   R   C   A *
                                 *****************

                                            #,                                       
                                            ###                                      
                                            ####                                     
                                            #####                                    
                                            ######                                   
                                           ########,                                 
                                     ,,################,,,,,                         
                               ,,#################################,,                 
                          ,,##########################################,,             
                       ,#########################################, ''#####,          
                    ,#############################################,,   '####,        
                  ,##################################################,,,,####,       
                ,###########''''           ''''###############################       
              ,#####''   ,,,,##########,,,,          '''####'''          '####       
            ,##' ,,,,###########################,,,                        '##       
           ' ,,###''''                  '''############,,,                           
         ,,##''                                '''############,,,,        ,,,,,,###''
      ,#''                                            '''#######################'''  
     '                                                          ''''####''''         
             ,#######,   #######,   ,#######,      ##                                
            ,#'     '#,  ##    ##  ,#'     '#,    #''#        ,####,   ,####,        
            ##       ##  ##   ,#'  ##            #'  '#       #'       #'  '#        
            ##       ##  #######   ##           ,######,      #####,   #    #        
            '#,     ,#'  ##    ##  '#,     ,#' ,#      #,     #,   #   #,  ,#        
             '#######'   ##     ##  '#######'  #'      '#     '####' # '####'        



                #########################################################
                #                        -***-                          #
                #          Department of theory and spectroscopy        #
                #                                                       #
                #                      Frank Neese                      #
                #                                                       #
                #     Directorship, Architecture, Infrastructure        #
                #                    SHARK, DRIVERS                     #
                #        Core code/Algorithms in most modules           #
                #                                                       #
                #        Max Planck Institute fuer Kohlenforschung      #
                #                Kaiser Wilhelm Platz 1                 #
                #                 D-45470 Muelheim/Ruhr                 #
                #                      Germany                          #
                #                                                       #
                #                  All rights reserved                  #
                #                        -***-                          #
                #########################################################


                         Program Version 6.0.1  -  RELEASE   -


 With contributions from (in alphabetic order):
[Max-Planck-Institut fuer Kohlenforschung]                               
  Daniel Aravena         : Magnetic Suceptibility                        
  Michael Atanasov       : Ab Initio Ligand Field Theory (pilot matlab implementation)
  Alexander A. Auer      : GIAO ZORA, VPT2 properties, NMR spectrum      
  Ute Becker             : All parallelization in ORCA, NUMFREQ, NUMCALC 
  Giovanni Bistoni       : ED, misc. LED, open-shell LED, HFLD           
  Martin Brehm           : Molecular dynamics                            
  Dmytro Bykov           : pre 5.0 version of the SCF Hessian            
  Marcos Casanova-Páez   : Triplet and SCS-CIS(D). UHF-(DLPNO)-IP/EA/STEOM-CCSD. UHF-CVS-IP/STEOM-CCSD   
  Vijay G. Chilkuri      : MRCI spin determinant printing, contributions to CSF-ICE 
  Pauline Colinet        : FMM embedding                                 
  Dipayan Datta          : RHF DLPNO-CCSD density                        
  Achintya Kumar Dutta   : EOM-CC, STEOM-CC                              
  Nicolas Foglia         : Exact transition moments, OPA infrastructure, MCD improvements    
  Dmitry Ganyushin       : Spin-Orbit,Spin-Spin,Magnetic field MRCI      
  Miquel Garcia-Rates    : C-PCM and meta-GGA Hessian, CCSD/C-PCM, Gaussian charge scheme 
  Tiago L. C. Gouveia    : GS-ROHF, GS-ROCIS                             
  Yang Guo               : DLPNO-NEVPT2, F12-NEVPT2, CIM, IAO-localization        
  Andreas Hansen         : Spin unrestricted coupled pair/coupled cluster methods 
  Ingolf Harden          : AUTO-CI MPn and infrastructure                
  Benjamin Helmich-Paris : MC-RPA, TRAH-(SCF,CASSCF), AVAS, COSX integrals, SCF dyn. polar. 
  Lee Huntington         : MR-EOM, pCC                                   
  Robert Izsak           : Overlap fitted RIJCOSX, COSX-SCS-MP3, EOM     
  Riya Kayal             : Wick's Theorem for AUTO-CI, AUTO-CI UHF-CCSDT 
  Emily Kempfer          : AUTO-CI, RHF CISDT and CCSDT                  
  Christian Kollmar      : KDIIS, OOCD, Brueckner-CCSD(T), CCSD density, CASPT2, CASPT2-K, improved NEVPT2 
  Axel Koslowski         : Symmetry handling                             
  Simone Kossmann        : meta-GGA functionals, TD-DFT gradient, OOMP2, (MP2 Hessian; deprecated post 5.0) 
  Lucas Lang             : DCDCAS                                        
  Marvin Lechner         : AUTO-CI (C++ implementation), FIC-MRCC        
  Spencer Leger          : CASSCF response                               
  Dagmar Lenk            : GEPOL surface, SMD, ORCA-2-JSON               
  Dimitrios Liakos       : Extrapolation schemes; Compound Job, initial MDCI parallelization 
  Dimitrios Manganas     : Further ROCIS development; embedding schemes. LFT, Crystal Embedding 
  Dimitrios Pantazis     : SARC Basis sets                               
  Anastasios Papadopoulos: AUTO-CI, single reference methods and gradients 
  Taras Petrenko         : pre 6.0 DFT Hessian and TD-DFT gradient, (ASA, deprecated), ECA, 1-Electron XAS/XES, NRVS 
  Peter Pinski           : DLPNO-MP2, DLPNO-MP2 Gradient                 
  Christoph Reimann      : Effective Core Potentials                     
  Marius Retegan         : Local ZFS, SOC                                
  Christoph Riplinger    : Optimizer, TS searches, QM/MM, DLPNO-CCSD(T), (RO)-DLPNO pert. Triples 
  Michael Roemelt        : Original ROCIS implementation                 
  Masaaki Saitow         : Open-shell DLPNO-CCSD energy and density      
  Barbara Sandhoefer     : DKH picture change effects                    
  Kantharuban Sivalingam : CASSCF convergence/infrastructure, NEVPT2 and variants, FIC-MRCI 
  Bernardo de Souza      : ESD, SOC TD-DFT                               
  Georgi L. Stoychev     : AutoAux, RI-MP2 NMR, DLPNO-MP2 response, X2C  
  Van Anh Tran           : RI-MP2 g-tensors                              
  Willem Van den Heuvel  : Paramagnetic NMR                              
  Zikuan Wang            : NOTCH, Electric field optimization            
  Frank Wennmohs         : Technical directorship and infrastructure     
  Hang Xu                : AUTO-CI-Response properties                   
                                                                         
[FACCTs GmbH]                                                            
  Markus Bursch, Miquel Garcia-Rates, Christoph Riplinger, Bernardo de Souza, Georgi L. Stoychev 
                                                                 
  APM, Basis sets (HGBS, AHGBS, def-TZVP (Ac-Lr), def2-XVPD (La-Lu)), CI-OPT, improved COSX, DLPNO-Multilevel,           
  DOCKER, DRACO, updates on ESD, GOAT, IRC, LR-CPCM, MBIS, meta-GGA TD-DFT gradient, ML-optimized integration grids, 
  MM, NACMEs, nearIR, NEB, NEB-TS, NL-DFT gradient (VV10), 2- and 3-layer-ONIOM, interface openCOSMO-RS, QMMM,   
  Crystal-QMMM, SF, symmetry and pop. for TD-DFT, r2SCAN hybrids, SOLVATOR                                   
                                                                         
[Other institutions]                                                     
  V. Asgeirsson          : NEB                                           
  Christoph Bannwarth    : sTDA-DFT, sTD-DFT, PBEh-3c, B97-3c, D3        
  Sebastian Ehlert       : rSCAN, r2SCAN, r2SCAN-3c, D4, dhf basis sets  
  Marvin Friede          : D4 for Fr, Ra, Ac-Lr                          
  Lars Goerigk           : TD-DFT with DH, B97 family of functionals     
  Stefan Grimme          : VdW corrections, initial TS optimization, DFT functionals, gCP, sTDA/sTD-DF 
  Waldemar Hujo          : DFT-NL                                        
  H. Jonsson             : NEB                                           
  Holger Kruse           : gCP                                           
  Marcel Mueller         : wB97X-3c, vDZP basis set                      
  Hagen Neugebauer       : wr2SCAN                                       
  Tobias Risthaus        : range-separated hybrid DFT                    
  Lukas Wittmann         : regularized MP2, r2SCAN double-hybrids, wr2SCAN        
                                                                         
We gratefully acknowledge several colleagues who have allowed us to      
interface, adapt or use parts of their codes:                            
  Ed Valeev, F. Pavosevic, A. Kumar             : LibInt (2-el integral package), F12 methods 
  Garnet Chan, S. Sharma, J. Yang, R. Olivares  : DMRG                   
  Ulf Ekstrom                                   : XCFun DFT Library      
  Mihaly Kallay                                 : mrcc  (arbitrary order and MRCC methods)
  Frank Weinhold                                : gennbo (NPA and NBO analysis)           
  Simon Mueller                                 : openCOSMO-RS                            
  Christopher J. Cramer and Donald G. Truhlar   : smd solvation model                     
  S Lehtola, MJT Oliveira, MAL Marques          : LibXC Library                           
  Liviu Ungur et al                             : ANISO software                          


 Your calculation uses the libint2 library for the computation of 2-el integrals
 For citations please refer to: http://libint.valeyev.net

 Your ORCA version has been built with support for libXC version: 6.2.2
 For citations please refer to: https://libxc.gitlab.io

 This ORCA versions uses:
   CBLAS   interface :  Fast vector & matrix operations
   LAPACKE interface :  Fast linear algebra routines
   Shared memory     :  Shared parallel matrices


NOTE: MaxCore=4000 MB was set to SCF,MP2,MDCI,CIPSI,MRCI and CIS
      => If you want to overwrite this, your respective input block should be placed after the MaxCore statement
Warning: RI is on but no J-basis has been assigned. Assigning Def2/J (nothing to worry about!)
================================================================================

----- Orbital basis set information -----
Your calculation utilizes the basis: def2-TZVPP
   F. Weigend and R. Ahlrichs, Phys. Chem. Chem. Phys. 7, 3297 (2005).

----- AuxJ basis set information -----
Your calculation utilizes the auxiliary basis: def2/J
   F. Weigend, Phys. Chem. Chem. Phys. 8, 1057 (2006).

================================================================================
                                        WARNINGS
                       Please study these warnings very carefully!
================================================================================


WARNING: Analytical and numerical frequencies both set to true
  ===> : Disabling Anfreq

WARNING: Geometry Optimization
  ===> : Switching off AutoStart
         For restart on a previous wavefunction, please use MOREAD

================================================================================
                                       INPUT FILE
================================================================================
NAME = C2H4_Freq-B3LYP.inp
|  1> ! B3LYP def2-TZVPP Opt TightOpt VeryTightSCF
|  2> 
|  3> ! Freq
|  4> ! NumFreq
|  5> 
|  6> %scf
|  7>    MaxIter 400          # Máximo de iteraciones permitidas para el SCF
|  8> end
|  9> 
| 10> %geom
| 11>    TolRMSD 1.0e-5
| 12>    TolMAXD 1.0e-4
| 13>    TolRMSG 1.0e-5
| 14>    TolMAXG 1.0e-4
| 15> end
| 16> 
| 17> %pal
| 18>    nprocs 1
| 19> end
| 20> 
| 21> 
| 22> %MaxCore 4000            # Memoria máxima por núcleo (en MB)
| 23> 
| 24> * xyz 0 1
| 25> C       0.66559385    0.00000000    0.00000000
| 26> C      -0.66559385    0.00000000    0.00000000
| 27> H       1.23167063   -0.92149339    0.00000000
| 28> H       1.23167063    0.92149339    0.00000000
| 29> H      -1.23167063   -0.92149339    0.00000000
| 30> H      -1.23167063    0.92149339    0.00000000
| 31> **                         ****END OF INPUT****
================================================================================

                       *****************************
                       * Geometry Optimization Run *
                       *****************************

Geometry optimization settings:
Update method            Update   .... BFGS
Choice of coordinates    CoordSys .... (2022) Redundant Internals
Initial Hessian          InHess   .... Almloef's Model
Max. no of cycles        MaxIter  .... 50

Convergence Tolerances:
Energy Change            TolE     ....  1.0000e-06 Eh
Max. Gradient            TolMAXG  ....  1.0000e-04 Eh/bohr
RMS Gradient             TolRMSG  ....  1.0000e-05 Eh/bohr
Max. Displacement        TolMAXD  ....  1.0000e-04 bohr
RMS Displacement         TolRMSD  ....  1.0000e-05 bohr
Strict Convergence                .... False

------------------------------------------------------------------------------
                        ORCA OPTIMIZATION COORDINATE SETUP
------------------------------------------------------------------------------

The optimization will be done in redundant internal coordinates (2022)
Making redundant internal coordinates   ...  (2022 redundants) done
Evaluating the initial hessian          ...  (Almloef) done
Evaluating the coordinates              ...  done
Calculating the B-matrix                .... done
Calculating the G-matrix                .... done
Diagonalizing the G-matrix              .... done
The first mode is                       ....    3
The number of degrees of freedom        ....   12

    -----------------------------------------------------------------
                    Redundant Internal Coordinates


    -----------------------------------------------------------------
         Definition                    Initial Value    Approx d2E/dq
    -----------------------------------------------------------------
      1. B(C   1,C   0)                  1.3312         0.775479   
      2. B(H   2,C   0)                  1.0815         0.371553   
      3. B(H   3,C   0)                  1.0815         0.371553   
      4. B(H   4,C   1)                  1.0815         0.371553   
      5. B(H   5,C   1)                  1.0815         0.371553   
      6. A(H   2,C   0,H   3)          116.8749         0.293720   
      7. A(C   1,C   0,H   2)          121.5626         0.368593   
      8. A(C   1,C   0,H   3)          121.5626         0.368593   
      9. A(H   4,C   1,H   5)          116.8749         0.293720   
     10. A(C   0,C   1,H   5)          121.5626         0.368593   
     11. A(C   0,C   1,H   4)          121.5626         0.368593   
     12. D(H   4,C   1,C   0,H   3)    180.0000         0.043173   
     13. D(H   5,C   1,C   0,H   2)    180.0000         0.043173   
     14. D(H   5,C   1,C   0,H   3)      0.0000         0.043173   
     15. D(H   4,C   1,C   0,H   2)      0.0000         0.043173   
    -----------------------------------------------------------------

Number of atoms                         .... 6
Number of degrees of freedom            .... 15


         *************************************************************
         *                GEOMETRY OPTIMIZATION CYCLE   1            *
         *************************************************************
---------------------------------
CARTESIAN COORDINATES (ANGSTROEM)
---------------------------------
  C      0.665594    0.000000    0.000000
  C     -0.665594    0.000000    0.000000
  H      1.231671   -0.921493    0.000000
  H      1.231671    0.921493    0.000000
  H     -1.231671   -0.921493    0.000000
  H     -1.231671    0.921493    0.000000

----------------------------
CARTESIAN COORDINATES (A.U.)
----------------------------
  NO LB      ZA    FRAG     MASS         X           Y           Z
   0 C     6.0000    0    12.011    1.257790    0.000000    0.000000
   1 C     6.0000    0    12.011   -1.257790    0.000000    0.000000
   2 H     1.0000    0     1.008    2.327520   -1.741370    0.000000
   3 H     1.0000    0     1.008    2.327520    1.741370    0.000000
   4 H     1.0000    0     1.008   -2.327520   -1.741370    0.000000
   5 H     1.0000    0     1.008   -2.327520    1.741370    0.000000

--------------------------------
INTERNAL COORDINATES (ANGSTROEM)
--------------------------------
 C      0   0   0     0.000000000000     0.00000000     0.00000000
 C      1   0   0     1.331187700000     0.00000000     0.00000000
 H      1   2   0     1.081477225220   121.56255916     0.00000000
 H      1   2   3     1.081477225220   121.56255916   180.00000121
 H      2   1   3     1.081477225220   121.56255916     0.00000000
 H      2   1   3     1.081477225220   121.56255916   180.00000121

---------------------------
INTERNAL COORDINATES (A.U.)
---------------------------
 C      0   0   0     0.000000000000     0.00000000     0.00000000
 C      1   0   0     2.515580185845     0.00000000     0.00000000
 H      1   2   0     2.043695775738   121.56255916     0.00000000
 H      1   2   3     2.043695775738   121.56255916   180.00000121
 H      2   1   3     2.043695775738   121.56255916     0.00000000
 H      2   1   3     2.043695775738   121.56255916   180.00000121

---------------------
BASIS SET INFORMATION
---------------------
There are 2 groups of distinct atoms

 Group   1 Type C   : 11s6p2d1f contracted to 5s3p2d1f pattern {62111/411/11/1}
 Group   2 Type H   : 5s2p1d contracted to 3s2p1d pattern {311/11/1}

Atom   0C    basis set group =>   1
Atom   1C    basis set group =>   1
Atom   2H    basis set group =>   2
Atom   3H    basis set group =>   2
Atom   4H    basis set group =>   2
Atom   5H    basis set group =>   2
---------------------------------
AUXILIARY/J BASIS SET INFORMATION
---------------------------------
There are 2 groups of distinct atoms

 Group   1 Type C   : 12s5p4d2f1g contracted to 6s4p3d1f1g pattern {711111/2111/211/2/1}
 Group   2 Type H   : 5s2p1d contracted to 3s1p1d pattern {311/2/1}

Atom   0C    basis set group =>   1
Atom   1C    basis set group =>   1
Atom   2H    basis set group =>   2
Atom   3H    basis set group =>   2
Atom   4H    basis set group =>   2
Atom   5H    basis set group =>   2
------------------------------------------------------------------------------
                             ORCA STARTUP CALCULATIONS
                           -- RI-GTO INTEGRALS CHOSEN --
------------------------------------------------------------------------------
------------------------------------------------------------------------------
                   ___                                                        
                  /   \      - P O W E R E D   B Y -                         
                 /     \                                                     
                 |  |  |   _    _      __       _____    __    __             
                 |  |  |  | |  | |    /  \     |  _  \  |  |  /  |          
                  \  \/   | |  | |   /    \    | | | |  |  | /  /          
                 / \  \   | |__| |  /  /\  \   | |_| |  |  |/  /          
                |  |  |   |  __  | /  /__\  \  |    /   |      \           
                |  |  |   | |  | | |   __   |  |    \   |  |\   \          
                \     /   | |  | | |  |  |  |  | |\  \  |  | \   \       
                 \___/    |_|  |_| |__|  |__|  |_| \__\ |__|  \__/        
                                                                              
                      - O R C A' S   B I G   F R I E N D -                    
                                      &                                       
                       - I N T E G R A L  F E E D E R -                       
                                                                              
 v1 FN, 2020, v2 2021, v3 2022-2024                                           
------------------------------------------------------------------------------


----------------------
SHARK INTEGRAL PACKAGE
----------------------

Number of atoms                             ...      6
Number of basis functions                   ...    118
Number of shells                            ...     46
Maximum angular momentum                    ...      3
Integral batch strategy                     ... SHARK/LIBINT Hybrid
RI-J (if used) integral strategy            ... SPLIT-RIJ (Revised 2003 algorithm where possible)
Printlevel                                  ...      1
Contraction scheme used                     ... SEGMENTED contraction
Prescreening option                         ... SCHWARTZ
   Thresh                                   ... 1.000e-12
   Tcut                                     ... 1.000e-14
   Tpresel                                  ... 1.000e-14 
Coulomb Range Separation                    ... NOT USED
Exchange Range Separation                   ... NOT USED
Multipole approximations                    ... NOT USED
Finite Nucleus Model                        ... NOT USED
CABS basis                                  ... NOT available
Auxiliary Coulomb fitting basis             ... AVAILABLE
   # of basis functions in Aux-J            ...    142
   # of shells in Aux-J                     ...     50
   Maximum angular momentum in Aux-J        ...      4
Auxiliary J/K fitting basis                 ... NOT available
Auxiliary Correlation fitting basis         ... NOT available
Auxiliary 'external' fitting basis          ... NOT available

Checking pre-screening integrals            ... done (  0.0 sec) Dimension = 46
Check shell pair data                       ... done (  0.0 sec)
Shell pair information
Shell pair cut-off parameter TPreSel        ...   1.0e-14
Total number of shell pairs                 ...      1081
Shell pairs after pre-screening             ...      1080
Total number of primitive shell pairs       ...      2684
Primitive shell pairs kept                  ...      2469
          la=0 lb=0:    252 shell pairs
          la=1 lb=0:    308 shell pairs
          la=1 lb=1:    105 shell pairs
          la=2 lb=0:    176 shell pairs
          la=2 lb=1:    112 shell pairs
          la=2 lb=2:     36 shell pairs
          la=3 lb=0:     44 shell pairs
          la=3 lb=1:     28 shell pairs
          la=3 lb=2:     16 shell pairs
          la=3 lb=3:      3 shell pairs

Calculating one electron integrals          ... done (  0.0 sec)
Calculating RI/J V-Matrix + Cholesky decomp.... done (  0.0 sec)
Calculating Nuclear repulsion               ... done (  0.0 sec) ENN=     33.423497764107 Eh

Diagonalization of the overlap matrix:
Smallest eigenvalue                        ... 1.876e-04
Time for diagonalization                   ...    0.002 sec
Threshold for overlap eigenvalues          ... 1.000e-07
Number of eigenvalues below threshold      ... 0
Time for construction of square roots      ...    0.002 sec
Total time needed                          ...    0.004 sec

-------------------
DFT GRID GENERATION
-------------------

General Integration Accuracy     IntAcc      ... 4.388
Radial Grid Type                 RadialGrid  ... OptM3 with GC (2021)
Angular Grid (max. ang.)         AngularGrid ... 4 (Lebedev-302)
Angular grid pruning method      GridPruning ... 4 (adaptive)
Weight generation scheme         WeightScheme... mBecke (2022)
Basis function cutoff            BFCut       ... 1.0000e-12
Integration weight cutoff        WCut        ... 1.0000e-14
Partially contracted basis set               ... off
Rotationally invariant grid construction     ... off
Angular grids for H and He will be reduced by one unit

Total number of grid points                  ...    25284
Total number of batches                      ...      399
Average number of points per batch           ...       63
Average number of grid points per atom       ...     4214

--------------------
COSX GRID GENERATION
--------------------

GRIDX 1
-------
General Integration Accuracy     IntAcc      ... 3.816
Radial Grid Type                 RadialGrid  ... OptM3 with GC (2021)
Angular Grid (max. ang.)         AngularGrid ... 1 (Lebedev-50)
Angular grid pruning method      GridPruning ... 4 (adaptive)
Weight generation scheme         WeightScheme... mBecke (2022)
Basis function cutoff            BFCut       ... 1.0000e-12
Integration weight cutoff        WCut        ... 1.0000e-14
Partially contracted basis set               ... on
Rotationally invariant grid construction     ... off
Angular grids for H and He will be reduced by one unit

Total number of grid points                  ...     3280
Total number of batches                      ...       30
Average number of points per batch           ...      109
Average number of grid points per atom       ...      547
UseSFitting                                  ... on

GRIDX 2
-------
General Integration Accuracy     IntAcc      ... 4.020
Radial Grid Type                 RadialGrid  ... OptM3 with GC (2021)
Angular Grid (max. ang.)         AngularGrid ... 2 (Lebedev-110)
Angular grid pruning method      GridPruning ... 4 (adaptive)
Weight generation scheme         WeightScheme... mBecke (2022)
Basis function cutoff            BFCut       ... 1.0000e-12
Integration weight cutoff        WCut        ... 1.0000e-14
Partially contracted basis set               ... on
Rotationally invariant grid construction     ... off
Angular grids for H and He will be reduced by one unit

Total number of grid points                  ...     6900
Total number of batches                      ...       57
Average number of points per batch           ...      121
Average number of grid points per atom       ...     1150
UseSFitting                                  ... on

GRIDX 3
-------
General Integration Accuracy     IntAcc      ... 4.338
Radial Grid Type                 RadialGrid  ... OptM3 with GC (2021)
Angular Grid (max. ang.)         AngularGrid ... 3 (Lebedev-194)
Angular grid pruning method      GridPruning ... 4 (adaptive)
Weight generation scheme         WeightScheme... mBecke (2022)
Basis function cutoff            BFCut       ... 1.0000e-12
Integration weight cutoff        WCut        ... 1.0000e-14
Partially contracted basis set               ... on
Rotationally invariant grid construction     ... off
Angular grids for H and He will be reduced by one unit

Total number of grid points                  ...    15208
Total number of batches                      ...      123
Average number of points per batch           ...      123
Average number of grid points per atom       ...     2535
UseSFitting                                  ... on
Initializing property integral containers    ... done (  0.0 sec)

SHARK setup successfully completed in   0.3 seconds

Maximum memory used throughout the entire STARTUP-calculation: 13.8 MB
-------------------------------------------------------------------------------
                                 ORCA GUESS
                   Start orbitals & Density for SCF / CASSCF
-------------------------------------------------------------------------------

------------
SCF SETTINGS
------------
Hamiltonian:
 Density Functional     Method          .... DFT(GTOs)
 Exchange Functional    Exchange        .... B88
   X-Alpha parameter    XAlpha          ....  0.666667
   Becke's b parameter  XBeta           ....  0.004200
 Correlation Functional Correlation     .... LYP
 LDA part of GGA corr.  LDAOpt          .... VWN-5
 Gradients option       PostSCFGGA      .... off
 Hybrid DFT is turned on
   Fraction HF Exchange ScalHFX         ....  0.200000
   Scaling of DF-GGA-X  ScalDFX         ....  0.720000
   Scaling of DF-GGA-C  ScalDFC         ....  0.810000
   Scaling of DF-LDA-C  ScalLDAC        ....  1.000000
   Perturbative correction              ....  0.000000
   NL short-range parameter             ....  4.800000
 RI-approximation to the Coulomb term is turned on
   Number of AuxJ basis functions       .... 142
   RIJ-COSX (HFX calculated with COS-X)).... on


General Settings:
 Integral files         IntName         .... C2H4_Freq-B3LYP
 Hartree-Fock type      HFTyp           .... RHF
 Total Charge           Charge          ....    0
 Multiplicity           Mult            ....    1
 Number of Electrons    NEL             ....   16
 Basis Dimension        Dim             ....  118
 Nuclear Repulsion      ENuc            ....     33.4234977641 Eh

Convergence Acceleration:
 AO-DIIS                CNVDIIS         .... on
   Start iteration      DIISMaxIt       ....    12
   Startup error        DIISStart       ....  0.200000
   # of expansion vecs  DIISMaxEq       ....     5
   Bias factor          DIISBfac        ....   1.050
   Max. coefficient     DIISMaxC        ....  10.000
 MO-DIIS                CNVKDIIS        .... off
 Trust-Rad. Augm. Hess. CNVTRAH         .... auto
   Auto Start mean grad. ratio tolernc. ....  1.125000
   Auto Start start iteration           ....    50
   Auto Start num. interpolation iter.  ....    10
   Max. Number of Micro iterations      ....    24
   Max. Number of Macro iterations      .... Maxiter - #DIIS iter
   Number of Davidson start vectors     ....     2
   Converg. threshold    (grad. norm)   ....   2.000e-06
   Grad. Scal. Fac. for Micro threshold ....   0.100
   Minimum threshold for Micro iter.    ....   1.000e-02
   NR start threshold (gradient norm)   ....   1.000e-04
   Initial trust radius                 ....   0.400
   Minimum AH scaling param. (alpha)    ....   1.000
   Maximum AH scaling param. (alpha)    .... 1000.000
   Quad. conv. algorithm                .... NR
   White noise on init. David. guess    .... on
   Maximum white noise                  ....   0.010
   Pseudo random numbers                .... off
   Inactive MOs                         .... canonical
   Orbital update algorithm             .... Taylor
   Preconditioner                       .... Diag
   Full preconditioner red. dimension   ....   250
 SOSCF                  CNVSOSCF        .... on
   Start iteration      SOSCFMaxIt      ....   150
   Startup grad/error   SOSCFStart      ....  0.003300
   Hessian update       SOSCFHessUp     .... L-BFGS
 Level Shifting         CNVShift        .... on
   Level shift para.    LevelShift      ....    0.2500
   Turn off err/grad.   ShiftErr        ....    0.0010
 Zerner damping         CNVZerner       .... off
 Static damping         CNVDamp         .... on
   Fraction old density DampFac         ....    0.7000
   Max. Damping (<1)    DampMax         ....    0.9800
   Min. Damping (>=0)   DampMin         ....    0.0000
   Turn off err/grad.   DampErr         ....    0.1000

SCF Procedure:
 Maximum # iterations   MaxIter         ....   400
 SCF integral mode      SCFMode         .... Direct
   Integral package                     .... SHARK and LIBINT hybrid scheme
 Reset frequency        DirectResetFreq ....    20
 Integral Threshold     Thresh          ....  1.000e-12 Eh
 Primitive CutOff       TCut            ....  1.000e-14 Eh

Convergence Tolerance:
 Convergence Check Mode ConvCheckMode   .... Total+1el-Energy
 Convergence forced     ConvForced      .... 0
 Energy Change          TolE            ....  1.000e-09 Eh
 1-El. energy change                    ....  1.000e-06 Eh
 Orbital Gradient       TolG            ....  2.000e-06
 Orbital Rotation angle TolX            ....  2.000e-06
 DIIS Error             TolErr          ....  1.000e-08

------------------------------
INITIAL GUESS: MODEL POTENTIAL
------------------------------
Loading Hartree-Fock densities                     ... done
Calculating cut-offs                               ... done
Initializing the effective Hamiltonian             ... done
Setting up the integral package (SHARK)            ... done
Starting the Coulomb interaction                   ... done (   0.0 sec)
Making the grid                                    ... done (   0.0 sec)
Mapping shells                                     ... done
Starting the XC term evaluation                    ... done (   0.1 sec)
  promolecular density results
     # of electrons  =     15.999376458
     EX              =    -11.423890390
     EC              =     -0.491617722
     EX+EC           =    -11.915508112
Transforming the Hamiltonian                       ... done (   0.0 sec)
Diagonalizing the Hamiltonian                      ... done (   0.0 sec)
Back transforming the eigenvectors                 ... done (   0.0 sec)
Now organizing SCF variables                       ... done
                      ------------------
                      INITIAL GUESS DONE (   0.1 sec)
                      ------------------
             **** ENERGY FILE WAS UPDATED (C2H4_Freq-B3LYP.en.tmp) ****
Finished Guess after   0.2 sec
Maximum memory used throughout the entire GUESS-calculation: 9.4 MB

-------------------------------------------------------------------------------------------
                                      ORCA LEAN-SCF
                              memory conserving SCF solver
-------------------------------------------------------------------------------------------

----------------------------------------D-I-I-S--------------------------------------------
Iteration    Energy (Eh)           Delta-E    RMSDP     MaxDP     DIISErr   Damp  Time(sec)
-------------------------------------------------------------------------------------------
               ***  Starting incremental Fock matrix formation  ***
    1    -78.4762072394196935     0.00e+00  1.47e-03  3.53e-02  1.83e-01  0.700   0.7
    2    -78.5182281348128868    -4.20e-02  1.07e-03  2.21e-02  9.80e-02  0.700   0.4
                               ***Turning on AO-DIIS***
    3    -78.5358753859909768    -1.76e-02  4.34e-04  7.43e-03  3.88e-02  0.700   0.4
    4    -78.5458091222701285    -9.93e-03  6.97e-04  1.10e-02  1.93e-02  0.000   0.4
    5    -78.5671368901591904    -2.13e-02  1.51e-04  1.92e-03  6.79e-03  0.000   0.4
                              *** Initializing SOSCF ***
---------------------------------------S-O-S-C-F--------------------------------------
Iteration    Energy (Eh)           Delta-E    RMSDP     MaxDP     MaxGrad    Time(sec)
--------------------------------------------------------------------------------------
    6    -78.5672825349096229    -1.46e-04  6.65e-05  8.98e-04  1.42e-03     0.4
               *** Restarting incremental Fock matrix formation ***
    7    -78.5672931557443803    -1.06e-05  4.19e-05  5.65e-04  2.85e-04     0.7
    8    -78.5672934850084630    -3.29e-07  6.86e-06  1.37e-04  1.53e-04     0.6
    9    -78.5672937535424580    -2.69e-07  3.42e-06  4.79e-05  2.35e-05     0.6
   10    -78.5672937585210320    -4.98e-09  5.60e-07  6.84e-06  5.87e-06     0.6
   11    -78.5672937593400889    -8.19e-10  7.56e-08  1.01e-06  6.20e-07     0.6
                 **** Energy Check signals convergence ****

               *****************************************************
               *                     SUCCESS                       *
               *           SCF CONVERGED AFTER  11 CYCLES          *
               *****************************************************

Recomputing exchange energy using gridx3       ... done (    0.872 sec)
Old exchange energy                            :     -2.348185640 Eh
New exchange energy                            :     -2.348178091 Eh
Exchange energy change after final integration :      0.000007549 Eh
Total energy after final integration           :    -78.567286210 Eh
             **** ENERGY FILE WAS UPDATED (C2H4_Freq-B3LYP.en.tmp) ****

----------------
TOTAL SCF ENERGY
----------------

Total Energy       :        -78.56728621025020 Eh           -2137.92455 eV

Components:
Nuclear Repulsion  :         33.42349776410668 Eh             909.49961 eV
Electronic Energy  :       -111.99079152344677 Eh           -3047.42437 eV
One Electron Energy:       -170.43845127626651 Eh           -4637.86604 eV
Two Electron Energy:         58.44765975281974 Eh            1590.44168 eV

Virial components:
Potential Energy   :       -156.71907689109659 Eh           -4264.54289 eV
Kinetic Energy     :         78.15179068084639 Eh            2126.61834 eV
Virial Ratio       :          2.00531651963166

DFT components:
N(Alpha)           :        8.000015592666 electrons
N(Beta)            :        8.000015592666 electrons
N(Total)           :       16.000031185332 electrons
E(X)               :       -9.315027308735 Eh       
E(C)               :       -0.591780667592 Eh       
E(XC)              :       -9.906807976327 Eh       

---------------
SCF CONVERGENCE
---------------

  Last Energy change         ...    8.1906e-10  Tolerance :   1.0000e-09
  Last MAX-Density change    ...    1.0146e-06  Tolerance :   1.0000e-08
  Last RMS-Density change    ...    7.5636e-08  Tolerance :   1.0000e-09
  Last DIIS Error            ...    1.4171e-03  Tolerance :   1.0000e-08
  Last Orbital Gradient      ...    6.2023e-07  Tolerance :   2.0000e-06
  Last Orbital Rotation      ...    4.8918e-07  Tolerance :   2.0000e-06


----------------
ORBITAL ENERGIES
----------------

  NO   OCC          E(Eh)            E(eV) 
   0   2.0000     -10.170721      -276.7594 
   1   2.0000     -10.169830      -276.7351 
   2   2.0000      -0.761732       -20.7278 
   3   2.0000      -0.581532       -15.8243 
   4   2.0000      -0.471708       -12.8358 
   5   2.0000      -0.422714       -11.5026 
   6   2.0000      -0.358055        -9.7432 
   7   2.0000      -0.277265        -7.5448 
   8   0.0000      -0.003400        -0.0925 
   9   0.0000       0.066879         1.8199 
  10   0.0000       0.091527         2.4906 
  11   0.0000       0.093004         2.5308 
  12   0.0000       0.152340         4.1454 
  13   0.0000       0.189715         5.1624 
  14   0.0000       0.209075         5.6892 
  15   0.0000       0.219125         5.9627 
  16   0.0000       0.221032         6.0146 
  17   0.0000       0.268096         7.2953 
  18   0.0000       0.309959         8.4344 
*Only the first 10 virtual orbitals were printed.

                    ********************************
                    * MULLIKEN POPULATION ANALYSIS *
                    ********************************

-----------------------
MULLIKEN ATOMIC CHARGES
-----------------------
   0 C :   -0.215399
   1 C :   -0.215405
   2 H :    0.107700
   3 H :    0.107700
   4 H :    0.107702
   5 H :    0.107702
Sum of atomic charges:   -0.0000000

--------------------------------
MULLIKEN REDUCED ORBITAL CHARGES
--------------------------------
  0 C s       :     3.234178  s :     3.234178
      pz      :     0.960650  p :     2.916939
      px      :     0.937025
      py      :     1.019265
      dz2     :     0.003969  d :     0.059802
      dxz     :     0.012467
      dyz     :     0.000000
      dx2y2   :     0.004658
      dxy     :     0.038708
      f0      :     0.000859  f :     0.004480
      f+1     :     0.000266
      f-1     :     0.000562
      f+2     :     0.000812
      f-2     :    -0.000000
      f+3     :     0.000752
      f-3     :     0.001229

  1 C s       :     3.234186  s :     3.234186
      pz      :     0.960650  p :     2.916937
      px      :     0.937024
      py      :     1.019263
      dz2     :     0.003970  d :     0.059802
      dxz     :     0.012467
      dyz     :    -0.000000
      dx2y2   :     0.004658
      dxy     :     0.038707
      f0      :     0.000859  f :     0.004480
      f+1     :     0.000266
      f-1     :     0.000562
      f+2     :     0.000812
      f-2     :    -0.000000
      f+3     :     0.000752
      f-3     :     0.001229

  2 H s       :     0.857559  s :     0.857559
      pz      :     0.011898  p :     0.033240
      px      :     0.009045
      py      :     0.012297
      dz2     :     0.000004  d :     0.001501
      dxz     :     0.000278
      dyz     :     0.000430
      dx2y2   :     0.000613
      dxy     :     0.000175

  3 H s       :     0.857559  s :     0.857559
      pz      :     0.011898  p :     0.033240
      px      :     0.009045
      py      :     0.012297
      dz2     :     0.000004  d :     0.001501
      dxz     :     0.000278
      dyz     :     0.000430
      dx2y2   :     0.000613
      dxy     :     0.000175

  4 H s       :     0.857557  s :     0.857557
      pz      :     0.011898  p :     0.033240
      px      :     0.009045
      py      :     0.012297
      dz2     :     0.000004  d :     0.001501
      dxz     :     0.000278
      dyz     :     0.000430
      dx2y2   :     0.000613
      dxy     :     0.000175

  5 H s       :     0.857557  s :     0.857557
      pz      :     0.011898  p :     0.033240
      px      :     0.009045
      py      :     0.012297
      dz2     :     0.000004  d :     0.001501
      dxz     :     0.000278
      dyz     :     0.000430
      dx2y2   :     0.000614
      dxy     :     0.000175



                     *******************************
                     * LOEWDIN POPULATION ANALYSIS *
                     *******************************

----------------------
LOEWDIN ATOMIC CHARGES
----------------------
   0 C :    0.005779
   1 C :    0.005779
   2 H :   -0.002889
   3 H :   -0.002889
   4 H :   -0.002889
   5 H :   -0.002889

-------------------------------
LOEWDIN REDUCED ORBITAL CHARGES
-------------------------------
  0 C s       :     2.772508  s :     2.772508
      pz      :     0.859154  p :     2.928299
      px      :     1.060017
      py      :     1.009128
      dz2     :     0.016840  d :     0.265229
      dxz     :     0.036959
      dyz     :     0.000000
      dx2y2   :     0.061968
      dxy     :     0.149461
      f0      :     0.000902  f :     0.028186
      f+1     :     0.003554
      f-1     :     0.002340
      f+2     :     0.004868
      f-2     :     0.000000
      f+3     :     0.007235
      f-3     :     0.009288

  1 C s       :     2.772508  s :     2.772508
      pz      :     0.859154  p :     2.928298
      px      :     1.060017
      py      :     1.009128
      dz2     :     0.016840  d :     0.265228
      dxz     :     0.036959
      dyz     :     0.000000
      dx2y2   :     0.061968
      dxy     :     0.149461
      f0      :     0.000902  f :     0.028186
      f+1     :     0.003554
      f-1     :     0.002340
      f+2     :     0.004868
      f-2     :     0.000000
      f+3     :     0.007235
      f-3     :     0.009288

  2 H s       :     0.824070  s :     0.824070
      pz      :     0.040888  p :     0.150276
      px      :     0.044097
      py      :     0.065291
      dz2     :     0.002652  d :     0.028543
      dxz     :     0.002602
      dyz     :     0.005569
      dx2y2   :     0.009248
      dxy     :     0.008472

  3 H s       :     0.824070  s :     0.824070
      pz      :     0.040888  p :     0.150276
      px      :     0.044097
      py      :     0.065291
      dz2     :     0.002652  d :     0.028543
      dxz     :     0.002602
      dyz     :     0.005569
      dx2y2   :     0.009248
      dxy     :     0.008472

  4 H s       :     0.824070  s :     0.824070
      pz      :     0.040888  p :     0.150276
      px      :     0.044097
      py      :     0.065291
      dz2     :     0.002652  d :     0.028543
      dxz     :     0.002602
      dyz     :     0.005569
      dx2y2   :     0.009248
      dxy     :     0.008472

  5 H s       :     0.824070  s :     0.824070
      pz      :     0.040888  p :     0.150276
      px      :     0.044097
      py      :     0.065291
      dz2     :     0.002652  d :     0.028543
      dxz     :     0.002602
      dyz     :     0.005569
      dx2y2   :     0.009248
      dxy     :     0.008472



                      *****************************
                      * MAYER POPULATION ANALYSIS *
                      *****************************

  NA   - Mulliken gross atomic population
  ZA   - Total nuclear charge
  QA   - Mulliken gross atomic charge
  VA   - Mayer's total valence
  BVA  - Mayer's bonded valence
  FA   - Mayer's free valence

  ATOM       NA         ZA         QA         VA         BVA        FA
  0 C      6.2154     6.0000    -0.2154     3.8871     3.8871    -0.0000
  1 C      6.2154     6.0000    -0.2154     3.8871     3.8871    -0.0000
  2 H      0.8923     1.0000     0.1077     0.9967     0.9967    -0.0000
  3 H      0.8923     1.0000     0.1077     0.9967     0.9967    -0.0000
  4 H      0.8923     1.0000     0.1077     0.9967     0.9967    -0.0000
  5 H      0.8923     1.0000     0.1077     0.9967     0.9967    -0.0000

  Mayer bond orders larger than 0.100000
B(  0-C ,  1-C ) :   1.9064 B(  0-C ,  2-H ) :   0.9789 B(  0-C ,  3-H ) :   0.9789 
B(  1-C ,  4-H ) :   0.9789 B(  1-C ,  5-H ) :   0.9789 

-------
TIMINGS
-------

Total SCF time: 0 days 0 hours 0 min 6 sec 

Total time                  ....       6.947 sec
Sum of individual times     ....       6.893 sec  ( 99.2%)

SCF preparation             ....       0.056 sec  (  0.8%)
Fock matrix formation       ....       6.200 sec  ( 89.2%)
  Startup                   ....       0.023 sec  (  0.4% of F)
  Split-RI-J                ....       0.277 sec  (  4.5% of F)
  Chain of spheres X        ....       4.269 sec  ( 68.9% of F)
  XC integration            ....       1.594 sec  ( 25.7% of F)
    Basis function eval.    ....       0.381 sec  ( 23.9% of XC)
    Density eval.           ....       0.304 sec  ( 19.1% of XC)
    XC-Functional eval.     ....       0.064 sec  (  4.0% of XC)
    XC-Potential eval.      ....       0.755 sec  ( 47.4% of XC)
Diagonalization             ....       0.000 sec  (  0.0%)
Density matrix formation    ....       0.255 sec  (  3.7%)
Total Energy calculation    ....       0.069 sec  (  1.0%)
Population analysis         ....       0.038 sec  (  0.5%)
Orbital Transformation      ....       0.020 sec  (  0.3%)
Orbital Orthonormalization  ....       0.000 sec  (  0.0%)
DIIS solution               ....       0.152 sec  (  2.2%)
SOSCF solution              ....       0.103 sec  (  1.5%)
Finished LeanSCF after   7.0 sec

Maximum memory used throughout the entire LEANSCF-calculation: 10.5 MB

-------------------------   --------------------
FINAL SINGLE POINT ENERGY       -78.567286210250
-------------------------   --------------------

------------------------------------------------------------------------------
                         ORCA SCF GRADIENT CALCULATION
------------------------------------------------------------------------------

Nuc. rep. gradient        (SHARK) ... done (  0.0 sec)
HCore & Overlap gradient  (SHARK) ... done (  0.0 sec)
Split-RIJ-J gradient      (SHARK) ... done (  0.1 sec)
COSX-gradient                     ... done (  4.4 sec)
XC gradient                       ... done (  0.8 sec)

------------------
CARTESIAN GRADIENT
------------------

   1   C   :    0.008084480    0.000000005    0.000000002
   2   C   :   -0.008084483    0.000000002    0.000000001
   3   H   :   -0.000686379    0.000572061    0.000000001
   4   H   :   -0.000686372   -0.000572061   -0.000000001
   5   H   :    0.000686373    0.000572060   -0.000000000
   6   H   :    0.000686380   -0.000572067   -0.000000002

Difference to translation invariance:
           :   -0.0000000000   -0.0000000000   -0.0000000000

Difference to rotation invariance:
           :   -0.0000000062   -0.0000000048   -0.0000000032

Norm of the Cartesian gradient     ...    0.0115719988
RMS gradient                       ...    0.0027275463
MAX gradient                       ...    0.0080844831

-------
TIMINGS
-------

Total SCF gradient time     ....        5.348 sec

One electron gradient       ....       0.024 sec  (  0.4%)
RI-J Coulomb gradient       ....       0.142 sec  (  2.7%)
COSX gradient               ....       4.410 sec  ( 82.5%)
XC gradient                 ....       0.772 sec  ( 14.4%)

Maximum memory used throughout the entire SCFGRAD-calculation: 13.6 MB
------------------------------------------------------------------------------
                         ORCA GEOMETRY RELAXATION STEP
------------------------------------------------------------------------------

Reading the OPT-File                    .... done
Getting information on internals        .... done
Copying old internal coords+grads       .... done
Making the new internal coordinates     .... (2022 redundants) done
Validating the new internal coordinates .... (2022 redundants) done
Calculating the B-matrix                .... done
Calculating the G,G- and P matrices     .... done
Transforming gradient to internals      .... done
Projecting the internal gradient        .... done
Number of atoms                         ....   6
Number of internal coordinates          ....  15
Current Energy                          ....   -78.567286210 Eh
Current gradient norm                   ....     0.011571999 Eh/bohr
Maximum allowed component of the step   ....  0.300
Current trust radius                    ....  0.300
Evaluating the initial hessian          ....  (Almloef) done
Projecting the Hessian                  .... done
Forming the augmented Hessian           .... done
Diagonalizing the augmented Hessian     .... done
Last element of RFO vector              ....  0.999949941
Lowest eigenvalues of augmented Hessian:
 -0.000067224  0.043172806  0.043172806  0.043172806  0.318678080
Length of the computed step             ....  0.010006239
The final length of the internal step   ....  0.010006239
Converting the step to Cartesian space:
 Initial RMS(Int)=    0.0025835998
Transforming coordinates:
 Iter   0:  RMS(Cart)=    0.0018449656 RMS(Int)=    1.6223135205
done
Storing new coordinates                 .... done

                                .--------------------.
          ----------------------|Geometry convergence|-------------------------
          Item                value                   Tolerance       Converged
          ---------------------------------------------------------------------
          RMS gradient        0.0017957094            0.0000100000      NO
          MAX gradient        0.0067117298            0.0001000000      NO
          RMS step            0.0025835998            0.0000100000      NO
          MAX step            0.0086542014            0.0001000000      NO
          ........................................................
          Max(Bonds)      0.0046      Max(Angles)    0.07
          Max(Dihed)        0.00      Max(Improp)    0.00
          ---------------------------------------------------------------------

The optimization has not yet converged - more geometry cycles are needed


    ---------------------------------------------------------------------------
                         Redundant Internal Coordinates
                            (Angstroem and degrees)

        Definition                    Value    dE/dq     Step     New-Value
    ----------------------------------------------------------------------------
     1. B(C   1,C   0)                1.3312  0.006712 -0.0046    1.3266   
     2. B(H   2,C   0)                1.0815 -0.000847  0.0012    1.0827   
     3. B(H   3,C   0)                1.0815 -0.000847  0.0012    1.0827   
     4. B(H   4,C   1)                1.0815 -0.000847  0.0012    1.0827   
     5. B(H   5,C   1)                1.0815 -0.000847  0.0012    1.0827   
     6. A(H   2,C   0,H   3)          116.87  0.000389   -0.07    116.80   
     7. A(C   1,C   0,H   2)          121.56 -0.000194    0.03    121.60   
     8. A(C   1,C   0,H   3)          121.56 -0.000194    0.03    121.60   
     9. A(H   4,C   1,H   5)          116.87  0.000389   -0.07    116.80   
    10. A(C   0,C   1,H   5)          121.56 -0.000194    0.03    121.60   
    11. A(C   0,C   1,H   4)          121.56 -0.000194    0.03    121.60   
    12. D(H   4,C   1,C   0,H   3)    180.00 -0.000000    0.00    180.00   
    13. D(H   5,C   1,C   0,H   2)    180.00  0.000000   -0.00    180.00   
    14. D(H   5,C   1,C   0,H   3)      0.00 -0.000000    0.00      0.00   
    15. D(H   4,C   1,C   0,H   2)      0.00  0.000000   -0.00     -0.00   
    ----------------------------------------------------------------------------

Geometry step timings:
Preparation and reading OPT file:      0.000 s ( 0.000 %)
Internal coordinates            :      0.000 s ( 0.000 %)
B/P matrices and projection     :      0.000 s ( 0.000 %)
Hessian update/contruction      :      0.001 s (50.000 %)
Making the step                 :      0.000 s ( 0.000 %)
Converting the step to Cartesian:      0.000 s ( 0.000 %)
Storing new data                :      0.000 s ( 0.000 %)
Checking convergence            :      0.000 s ( 0.000 %)
Final printing                  :      0.001 s (50.000 %)
Total time                      :      0.002 s

Time for energy+gradient        :     12.960 s
Time for complete geometry iter :     13.013 s

         *************************************************************
         *                GEOMETRY OPTIMIZATION CYCLE   2            *
         *************************************************************
---------------------------------
CARTESIAN COORDINATES (ANGSTROEM)
---------------------------------
  C      0.663304   -0.000000   -0.000000
  C     -0.663304   -0.000000   -0.000000
  H      1.230575   -0.922175    0.000000
  H      1.230575    0.922175    0.000000
  H     -1.230575   -0.922175    0.000000
  H     -1.230575    0.922175    0.000000

----------------------------
CARTESIAN COORDINATES (A.U.)
----------------------------
  NO LB      ZA    FRAG     MASS         X           Y           Z
   0 C     6.0000    0    12.011    1.253463   -0.000000   -0.000000
   1 C     6.0000    0    12.011   -1.253463   -0.000000   -0.000000
   2 H     1.0000    0     1.008    2.325449   -1.742658    0.000000
   3 H     1.0000    0     1.008    2.325449    1.742658    0.000000
   4 H     1.0000    0     1.008   -2.325449   -1.742658    0.000000
   5 H     1.0000    0     1.008   -2.325449    1.742658    0.000000

--------------------------------
INTERNAL COORDINATES (ANGSTROEM)
--------------------------------
 C      0   0   0     0.000000000000     0.00000000     0.00000000
 C      1   0   0     1.326608093887     0.00000000     0.00000000
 H      1   2   0     1.082682912815   121.59750918     0.00000000
 H      1   2   3     1.082682907267   121.59750739   180.00000191
 H      2   1   3     1.082682906664   121.59750806     0.00000000
 H      2   1   3     1.082682921271   121.59750851   179.99999879

---------------------------
INTERNAL COORDINATES (A.U.)
---------------------------
 C      0   0   0     0.000000000000     0.00000000     0.00000000
 C      1   0   0     2.506925984489     0.00000000     0.00000000
 H      1   2   0     2.045974195096   121.59750918     0.00000000
 H      1   2   3     2.045974184612   121.59750739   180.00000191
 H      2   1   3     2.045974183473   121.59750806     0.00000000
 H      2   1   3     2.045974211076   121.59750851   179.99999879

------------------------------------------------------------------------------
                   ___                                                        
                  /   \      - P O W E R E D   B Y -                         
                 /     \                                                     
                 |  |  |   _    _      __       _____    __    __             
                 |  |  |  | |  | |    /  \     |  _  \  |  |  /  |          
                  \  \/   | |  | |   /    \    | | | |  |  | /  /          
                 / \  \   | |__| |  /  /\  \   | |_| |  |  |/  /          
                |  |  |   |  __  | /  /__\  \  |    /   |      \           
                |  |  |   | |  | | |   __   |  |    \   |  |\   \          
                \     /   | |  | | |  |  |  |  | |\  \  |  | \   \       
                 \___/    |_|  |_| |__|  |__|  |_| \__\ |__|  \__/        
                                                                              
                      - O R C A' S   B I G   F R I E N D -                    
                                      &                                       
                       - I N T E G R A L  F E E D E R -                       
                                                                              
 v1 FN, 2020, v2 2021, v3 2022-2024                                           
------------------------------------------------------------------------------


----------------------
SHARK INTEGRAL PACKAGE
----------------------

Number of atoms                             ...      6
Number of basis functions                   ...    118
Number of shells                            ...     46
Maximum angular momentum                    ...      3
Integral batch strategy                     ... SHARK/LIBINT Hybrid
RI-J (if used) integral strategy            ... SPLIT-RIJ (Revised 2003 algorithm where possible)
Printlevel                                  ...      1
Contraction scheme used                     ... SEGMENTED contraction
Prescreening option                         ... SCHWARTZ
   Thresh                                   ... 1.000e-12
   Tcut                                     ... 1.000e-14
   Tpresel                                  ... 1.000e-14 
Coulomb Range Separation                    ... NOT USED
Exchange Range Separation                   ... NOT USED
Multipole approximations                    ... NOT USED
Finite Nucleus Model                        ... NOT USED
CABS basis                                  ... NOT available
Auxiliary Coulomb fitting basis             ... AVAILABLE
   # of basis functions in Aux-J            ...    142
   # of shells in Aux-J                     ...     50
   Maximum angular momentum in Aux-J        ...      4
Auxiliary J/K fitting basis                 ... NOT available
Auxiliary Correlation fitting basis         ... NOT available
Auxiliary 'external' fitting basis          ... NOT available

Checking pre-screening integrals            ... done (  0.0 sec) Dimension = 46
Check shell pair data                       ... done (  0.0 sec)
Shell pair information
Shell pair cut-off parameter TPreSel        ...   1.0e-14
Total number of shell pairs                 ...      1081
Shell pairs after pre-screening             ...      1080
Total number of primitive shell pairs       ...      2684
Primitive shell pairs kept                  ...      2469
          la=0 lb=0:    252 shell pairs
          la=1 lb=0:    308 shell pairs
          la=1 lb=1:    105 shell pairs
          la=2 lb=0:    176 shell pairs
          la=2 lb=1:    112 shell pairs
          la=2 lb=2:     36 shell pairs
          la=3 lb=0:     44 shell pairs
          la=3 lb=1:     28 shell pairs
          la=3 lb=2:     16 shell pairs
          la=3 lb=3:      3 shell pairs

Calculating one electron integrals          ... done (  0.0 sec)
Calculating RI/J V-Matrix + Cholesky decomp.... done (  0.0 sec)
Calculating Nuclear repulsion               ... done (  0.0 sec) ENN=     33.467738014373 Eh

Diagonalization of the overlap matrix:
Smallest eigenvalue                        ... 1.830e-04
Time for diagonalization                   ...    0.001 sec
Threshold for overlap eigenvalues          ... 1.000e-07
Number of eigenvalues below threshold      ... 0
Time for construction of square roots      ...    0.001 sec
Total time needed                          ...    0.006 sec

-------------------
DFT GRID GENERATION
-------------------

General Integration Accuracy     IntAcc      ... 4.388
Radial Grid Type                 RadialGrid  ... OptM3 with GC (2021)
Angular Grid (max. ang.)         AngularGrid ... 4 (Lebedev-302)
Angular grid pruning method      GridPruning ... 4 (adaptive)
Weight generation scheme         WeightScheme... mBecke (2022)
Basis function cutoff            BFCut       ... 1.0000e-12
Integration weight cutoff        WCut        ... 1.0000e-14
Partially contracted basis set               ... off
Rotationally invariant grid construction     ... off
Angular grids for H and He will be reduced by one unit

Total number of grid points                  ...    25284
Total number of batches                      ...      398
Average number of points per batch           ...       63
Average number of grid points per atom       ...     4214

--------------------
COSX GRID GENERATION
--------------------

GRIDX 1
-------
General Integration Accuracy     IntAcc      ... 3.816
Radial Grid Type                 RadialGrid  ... OptM3 with GC (2021)
Angular Grid (max. ang.)         AngularGrid ... 1 (Lebedev-50)
Angular grid pruning method      GridPruning ... 4 (adaptive)
Weight generation scheme         WeightScheme... mBecke (2022)
Basis function cutoff            BFCut       ... 1.0000e-12
Integration weight cutoff        WCut        ... 1.0000e-14
Partially contracted basis set               ... on
Rotationally invariant grid construction     ... off
Angular grids for H and He will be reduced by one unit

Total number of grid points                  ...     3280
Total number of batches                      ...       30
Average number of points per batch           ...      109
Average number of grid points per atom       ...      547
UseSFitting                                  ... on

GRIDX 2
-------
General Integration Accuracy     IntAcc      ... 4.020
Radial Grid Type                 RadialGrid  ... OptM3 with GC (2021)
Angular Grid (max. ang.)         AngularGrid ... 2 (Lebedev-110)
Angular grid pruning method      GridPruning ... 4 (adaptive)
Weight generation scheme         WeightScheme... mBecke (2022)
Basis function cutoff            BFCut       ... 1.0000e-12
Integration weight cutoff        WCut        ... 1.0000e-14
Partially contracted basis set               ... on
Rotationally invariant grid construction     ... off
Angular grids for H and He will be reduced by one unit

Total number of grid points                  ...     6900
Total number of batches                      ...       57
Average number of points per batch           ...      121
Average number of grid points per atom       ...     1150
UseSFitting                                  ... on

GRIDX 3
-------
General Integration Accuracy     IntAcc      ... 4.338
Radial Grid Type                 RadialGrid  ... OptM3 with GC (2021)
Angular Grid (max. ang.)         AngularGrid ... 3 (Lebedev-194)
Angular grid pruning method      GridPruning ... 4 (adaptive)
Weight generation scheme         WeightScheme... mBecke (2022)
Basis function cutoff            BFCut       ... 1.0000e-12
Integration weight cutoff        WCut        ... 1.0000e-14
Partially contracted basis set               ... on
Rotationally invariant grid construction     ... off
Angular grids for H and He will be reduced by one unit

Total number of grid points                  ...    15208
Total number of batches                      ...      122
Average number of points per batch           ...      124
Average number of grid points per atom       ...     2535
UseSFitting                                  ... on
Initializing property integral containers    ... done (  0.0 sec)

SHARK setup successfully completed in   0.3 seconds

Maximum memory used throughout the entire STARTUP-calculation: 13.9 MB
Occupation numbers will be reassigned to an Aufbau configuration
             **** ENERGY FILE WAS UPDATED (C2H4_Freq-B3LYP.en.tmp) ****
Finished Guess after   0.1 sec
Maximum memory used throughout the entire GUESS-calculation: 9.5 MB
----------------------------------------D-I-I-S--------------------------------------------
Iteration    Energy (Eh)           Delta-E    RMSDP     MaxDP     DIISErr   Damp  Time(sec)
-------------------------------------------------------------------------------------------
               ***  Starting incremental Fock matrix formation  ***
                              *** Initializing SOSCF ***
---------------------------------------S-O-S-C-F--------------------------------------
Iteration    Energy (Eh)           Delta-E    RMSDP     MaxDP     MaxGrad    Time(sec)
--------------------------------------------------------------------------------------
    1    -78.5673270067645433     0.00e+00  5.57e-05  9.42e-04  1.76e-04     0.7
               *** Restarting incremental Fock matrix formation ***
    2    -78.5673345501995044    -7.54e-06  2.14e-05  3.56e-04  2.53e-04     0.6
    3    -78.5673349498285489    -4.00e-07  6.46e-06  9.90e-05  1.76e-04     0.6
    4    -78.5673352340855615    -2.84e-07  2.09e-06  2.47e-05  2.85e-05     0.6
    5    -78.5673352377800143    -3.69e-09  2.74e-07  4.96e-06  3.74e-06     0.6
    6    -78.5673352381257644    -3.46e-10  3.04e-08  3.90e-07  6.59e-07     0.6
                 **** Energy Check signals convergence ****

               *****************************************************
               *                     SUCCESS                       *
               *           SCF CONVERGED AFTER   6 CYCLES          *
               *****************************************************

Recomputing exchange energy using gridx3       ... done (    0.884 sec)
Old exchange energy                            :     -2.348476924 Eh
New exchange energy                            :     -2.348469410 Eh
Exchange energy change after final integration :      0.000007514 Eh
Total energy after final integration           :    -78.567327724 Eh
             **** ENERGY FILE WAS UPDATED (C2H4_Freq-B3LYP.en.tmp) ****

----------------
TOTAL SCF ENERGY
----------------

Total Energy       :        -78.56732772435065 Eh           -2137.92568 eV

Components:
Nuclear Repulsion  :         33.46773801437298 Eh             910.70345 eV
Electronic Energy  :       -112.03507325249875 Eh           -3048.62933 eV
One Electron Energy:       -170.52725958785581 Eh           -4640.28264 eV
Two Electron Energy:         58.49218633535706 Eh            1591.65331 eV

Virial components:
Potential Energy   :       -156.72600994029187 Eh           -4264.73155 eV
Kinetic Energy     :         78.15868221594123 Eh            2126.80587 eV
Virial Ratio       :          2.00522840837158

DFT components:
N(Alpha)           :        8.000015698557 electrons
N(Beta)            :        8.000015698557 electrons
N(Total)           :       16.000031397114 electrons
E(X)               :       -9.316013376975 Eh       
E(C)               :       -0.591866489570 Eh       
E(XC)              :       -9.907879866545 Eh       

---------------
SCF CONVERGENCE
---------------

  Last Energy change         ...    3.4575e-10  Tolerance :   1.0000e-09
  Last MAX-Density change    ...    3.8974e-07  Tolerance :   1.0000e-08
  Last RMS-Density change    ...    3.0403e-08  Tolerance :   1.0000e-09
  Last DIIS Error            ...    1.3271e-03  Tolerance :   1.0000e-08
  Last Orbital Gradient      ...    6.5918e-07  Tolerance :   2.0000e-06
  Last Orbital Rotation      ...    5.7993e-07  Tolerance :   2.0000e-06


Total SCF time: 0 days 0 hours 0 min 4 sec 
Finished LeanSCF after   4.6 sec

Maximum memory used throughout the entire LEANSCF-calculation: 10.7 MB

-------------------------   --------------------
FINAL SINGLE POINT ENERGY       -78.567327724351
-------------------------   --------------------

------------------------------------------------------------------------------
                         ORCA SCF GRADIENT CALCULATION
------------------------------------------------------------------------------

Nuc. rep. gradient        (SHARK) ... done (  0.0 sec)
HCore & Overlap gradient  (SHARK) ... done (  0.0 sec)
Split-RIJ-J gradient      (SHARK) ... done (  0.1 sec)
COSX-gradient                     ... done (  4.4 sec)
XC gradient                       ... done (  0.8 sec)

------------------
CARTESIAN GRADIENT
------------------

   1   C   :    0.002181098   -0.000000008   -0.000000006
   2   C   :   -0.002181090   -0.000000006    0.000000004
   3   H   :   -0.000345172   -0.000093574    0.000000002
   4   H   :   -0.000345188    0.000093572    0.000000003
   5   H   :    0.000345183   -0.000093570   -0.000000002
   6   H   :    0.000345169    0.000093585   -0.000000002

Difference to translation invariance:
           :    0.0000000000   -0.0000000000   -0.0000000000

Difference to rotation invariance:
           :    0.0000000012   -0.0000000069    0.0000000141

Norm of the Cartesian gradient     ...    0.0031663798
RMS gradient                       ...    0.0007463229
MAX gradient                       ...    0.0021810983

-------
TIMINGS
-------

Total SCF gradient time     ....        5.372 sec

Densities                   ....       0.001 sec  (  0.0%)
One electron gradient       ....       0.022 sec  (  0.4%)
RI-J Coulomb gradient       ....       0.139 sec  (  2.6%)
COSX gradient               ....       4.445 sec  ( 82.7%)
XC gradient                 ....       0.765 sec  ( 14.2%)

Maximum memory used throughout the entire SCFGRAD-calculation: 13.6 MB
------------------------------------------------------------------------------
                         ORCA GEOMETRY RELAXATION STEP
------------------------------------------------------------------------------

Reading the OPT-File                    .... done
Getting information on internals        .... done
Copying old internal coords+grads       .... done
Making the new internal coordinates     .... (2022 redundants) done
Validating the new internal coordinates .... (2022 redundants) done
Calculating the B-matrix                .... done
Calculating the G,G- and P matrices     .... done
Transforming gradient to internals      .... done
Projecting the internal gradient        .... done
Number of atoms                         ....   6
Number of internal coordinates          ....  15
Current Energy                          ....   -78.567327724 Eh
Current gradient norm                   ....     0.003166380 Eh/bohr
Maximum allowed component of the step   ....  0.300
Current trust radius                    ....  0.300
Updating the Hessian (BFGS)             .... done
Forming the augmented Hessian           .... done
Diagonalizing the augmented Hessian     .... done
Last element of RFO vector              ....  0.999989931
Lowest eigenvalues of augmented Hessian:
 -0.000007115  0.043172806  0.043172806  0.043172806  0.285883865
Length of the computed step             ....  0.004487510
The final length of the internal step   ....  0.004487510
Converting the step to Cartesian space:
 Initial RMS(Int)=    0.0011586701
Transforming coordinates:
 Iter   0:  RMS(Cart)=    0.0006183513 RMS(Int)=    1.6223118767
done
Storing new coordinates                 .... done
The predicted energy change is          ....    -0.000003558
Previously predicted energy change      ....    -0.000033616
Actually observed energy change         ....    -0.000041514
Ratio of predicted to observed change   ....     1.234966282
New trust radius                        ....     0.450000000

                                .--------------------.
          ----------------------|Geometry convergence|-------------------------
          Item                value                   Tolerance       Converged
          ---------------------------------------------------------------------
          Energy change      -0.0000415141            0.0000010000      NO
          RMS gradient        0.0004412103            0.0000100000      NO
          MAX gradient        0.0014907383            0.0001000000      NO
          RMS step            0.0011586701            0.0000100000      NO
          MAX step            0.0028147386            0.0001000000      NO
          ........................................................
          Max(Bonds)      0.0015      Max(Angles)    0.11
          Max(Dihed)        0.00      Max(Improp)    0.00
          ---------------------------------------------------------------------

The optimization has not yet converged - more geometry cycles are needed


    ---------------------------------------------------------------------------
                         Redundant Internal Coordinates
                            (Angstroem and degrees)

        Definition                    Value    dE/dq     Step     New-Value
    ----------------------------------------------------------------------------
     1. B(C   1,C   0)                1.3266  0.001491 -0.0015    1.3251   
     2. B(H   2,C   0)                1.0827 -0.000101  0.0002    1.0829   
     3. B(H   3,C   0)                1.0827 -0.000101  0.0002    1.0829   
     4. B(H   4,C   1)                1.0827 -0.000101  0.0002    1.0829   
     5. B(H   5,C   1)                1.0827 -0.000101  0.0002    1.0829   
     6. A(H   2,C   0,H   3)          116.80  0.000468   -0.11    116.69   
     7. A(C   1,C   0,H   2)          121.60 -0.000234    0.06    121.65   
     8. A(C   1,C   0,H   3)          121.60 -0.000234    0.06    121.65   
     9. A(H   4,C   1,H   5)          116.80  0.000468   -0.11    116.69   
    10. A(C   0,C   1,H   5)          121.60 -0.000234    0.06    121.65   
    11. A(C   0,C   1,H   4)          121.60 -0.000234    0.06    121.65   
    12. D(H   4,C   1,C   0,H   3)   -180.00  0.000000   -0.00   -180.00   
    13. D(H   5,C   1,C   0,H   2)    180.00 -0.000000    0.00    180.00   
    14. D(H   5,C   1,C   0,H   3)      0.00  0.000000   -0.00     -0.00   
    15. D(H   4,C   1,C   0,H   2)     -0.00 -0.000000    0.00      0.00   
    ----------------------------------------------------------------------------

Geometry step timings:
Preparation and reading OPT file:      0.005 s (71.429 %)
Internal coordinates            :      0.000 s ( 0.000 %)
B/P matrices and projection     :      0.000 s ( 0.000 %)
Hessian update/contruction      :      0.001 s (14.286 %)
Making the step                 :      0.000 s ( 0.000 %)
Converting the step to Cartesian:      0.000 s ( 0.000 %)
Storing new data                :      0.000 s ( 0.000 %)
Checking convergence            :      0.000 s ( 0.000 %)
Final printing                  :      0.001 s (14.286 %)
Total time                      :      0.007 s

Time for energy+gradient        :     10.483 s
Time for complete geometry iter :     10.529 s

         *************************************************************
         *                GEOMETRY OPTIMIZATION CYCLE   3            *
         *************************************************************
---------------------------------
CARTESIAN COORDINATES (ANGSTROEM)
---------------------------------
  C      0.662559    0.000000    0.000000
  C     -0.662559    0.000000   -0.000000
  H      1.230852   -0.921817   -0.000000
  H      1.230852    0.921817   -0.000000
  H     -1.230852   -0.921817    0.000000
  H     -1.230852    0.921817    0.000000

----------------------------
CARTESIAN COORDINATES (A.U.)
----------------------------
  NO LB      ZA    FRAG     MASS         X           Y           Z
   0 C     6.0000    0    12.011    1.252056    0.000000    0.000000
   1 C     6.0000    0    12.011   -1.252056    0.000000   -0.000000
   2 H     1.0000    0     1.008    2.325973   -1.741982   -0.000000
   3 H     1.0000    0     1.008    2.325973    1.741982   -0.000000
   4 H     1.0000    0     1.008   -2.325973   -1.741982    0.000000
   5 H     1.0000    0     1.008   -2.325973    1.741982    0.000000

--------------------------------
INTERNAL COORDINATES (ANGSTROEM)
--------------------------------
 C      0   0   0     0.000000000000     0.00000000     0.00000000
 C      1   0   0     1.325118598361     0.00000000     0.00000000
 H      1   2   0     1.082914071129   121.65347852     0.00000000
 H      1   2   3     1.082914084671   121.65348123   179.99999618
 H      2   1   3     1.082914083605   121.65348002     0.00000000
 H      2   1   3     1.082914058822   121.65347938   179.99999915

---------------------------
INTERNAL COORDINATES (A.U.)
---------------------------
 C      0   0   0     0.000000000000     0.00000000     0.00000000
 C      1   0   0     2.504111245869     0.00000000     0.00000000
 H      1   2   0     2.046411021003   121.65347852     0.00000000
 H      1   2   3     2.046411046594   121.65348123   179.99999618
 H      2   1   3     2.046411044581   121.65348002     0.00000000
 H      2   1   3     2.046410997746   121.65347938   179.99999915

------------------------------------------------------------------------------
                   ___                                                        
                  /   \      - P O W E R E D   B Y -                         
                 /     \                                                     
                 |  |  |   _    _      __       _____    __    __             
                 |  |  |  | |  | |    /  \     |  _  \  |  |  /  |          
[...]
	<< Calculating gradient on displaced geometry  10 (of  36) >>
	<< Calculating gradient on displaced geometry  11 (of  36) >>
	<< Calculating gradient on displaced geometry  12 (of  36) >>
	<< Calculating gradient on displaced geometry  13 (of  36) >>
	<< Calculating gradient on displaced geometry  14 (of  36) >>
	<< Calculating gradient on displaced geometry  15 (of  36) >>
	<< Calculating gradient on displaced geometry  16 (of  36) >>
	<< Calculating gradient on displaced geometry  17 (of  36) >>
	<< Calculating gradient on displaced geometry  18 (of  36) >>
	<< Calculating gradient on displaced geometry  19 (of  36) >>
	<< Calculating gradient on displaced geometry  20 (of  36) >>
	<< Calculating gradient on displaced geometry  21 (of  36) >>
	<< Calculating gradient on displaced geometry  22 (of  36) >>
	<< Calculating gradient on displaced geometry  23 (of  36) >>
	<< Calculating gradient on displaced geometry  24 (of  36) >>
	<< Calculating gradient on displaced geometry  25 (of  36) >>
	<< Calculating gradient on displaced geometry  26 (of  36) >>
	<< Calculating gradient on displaced geometry  27 (of  36) >>
	<< Calculating gradient on displaced geometry  28 (of  36) >>
	<< Calculating gradient on displaced geometry  29 (of  36) >>
	<< Calculating gradient on displaced geometry  30 (of  36) >>
	<< Calculating gradient on displaced geometry  31 (of  36) >>
	<< Calculating gradient on displaced geometry  32 (of  36) >>
	<< Calculating gradient on displaced geometry  33 (of  36) >>
	<< Calculating gradient on displaced geometry  34 (of  36) >>
	<< Calculating gradient on displaced geometry  35 (of  36) >>
	<< Calculating gradient on displaced geometry  36 (of  36) >>

-----------------------
VIBRATIONAL FREQUENCIES
-----------------------

Scaling factor for frequencies =  1.000000000  (already applied!)

     0:       0.00 cm**-1
     1:       0.00 cm**-1
     2:       0.00 cm**-1
     3:       0.00 cm**-1
     4:       0.00 cm**-1
     5:       0.00 cm**-1
     6:     833.76 cm**-1
     7:     978.19 cm**-1
     8:     984.80 cm**-1
     9:    1063.98 cm**-1
    10:    1245.61 cm**-1
    11:    1380.82 cm**-1
    12:    1481.05 cm**-1
    13:    1688.73 cm**-1
    14:    3128.22 cm**-1
    15:    3139.88 cm**-1
    16:    3195.79 cm**-1
    17:    3223.43 cm**-1


------------
NORMAL MODES
------------

These modes are the Cartesian displacements weighted by the diagonal matrix
M(i,i)=1/sqrt(m[i]) where m[i] is the mass of the displaced atom
Thus, these vectors are normalized but *not* orthogonal

                  0          1          2          3          4          5    
      0       0.000000   0.000000   0.000000   0.000000   0.000000   0.000000
      1       0.000000   0.000000   0.000000   0.000000   0.000000   0.000000
      2       0.000000   0.000000   0.000000   0.000000   0.000000   0.000000
      3       0.000000   0.000000   0.000000   0.000000   0.000000   0.000000
      4       0.000000   0.000000   0.000000   0.000000   0.000000   0.000000
      5       0.000000   0.000000   0.000000   0.000000   0.000000   0.000000
      6       0.000000   0.000000   0.000000   0.000000   0.000000   0.000000
      7       0.000000   0.000000   0.000000   0.000000   0.000000   0.000000
      8       0.000000   0.000000   0.000000   0.000000   0.000000   0.000000
      9       0.000000   0.000000   0.000000   0.000000   0.000000   0.000000
     10       0.000000   0.000000   0.000000   0.000000   0.000000   0.000000
     11       0.000000   0.000000   0.000000   0.000000   0.000000   0.000000
     12       0.000000   0.000000   0.000000   0.000000   0.000000   0.000000
     13       0.000000   0.000000   0.000000   0.000000   0.000000   0.000000
     14       0.000000   0.000000   0.000000   0.000000   0.000000   0.000000
     15       0.000000   0.000000   0.000000   0.000000   0.000000   0.000000
     16       0.000000   0.000000   0.000000   0.000000   0.000000   0.000000
     17       0.000000   0.000000   0.000000   0.000000   0.000000   0.000000
                  6          7          8          9         10         11    
      0      -0.000000   0.000001  -0.000000  -0.000000   0.000003   0.100145
      1       0.039997  -0.000000  -0.000003   0.000001  -0.153260   0.000002
      2      -0.000002   0.081547  -0.153665  -0.000002   0.000002  -0.000001
      3       0.000000  -0.000000  -0.000000  -0.000000  -0.000004  -0.097422
      4       0.039450  -0.000001  -0.000000  -0.000001   0.153532  -0.000001
      5       0.000005   0.085118   0.151110   0.000003  -0.000001  -0.000000
      6      -0.440594   0.000009   0.000019   0.000001   0.465644   0.446366
      7      -0.236767   0.000005   0.000010  -0.000000   0.141653   0.191441
      8       0.000007  -0.490763   0.495789   0.500007  -0.000001   0.000004
      9       0.440585  -0.000007  -0.000020  -0.000000  -0.465628   0.446385
     10      -0.236759   0.000004   0.000010   0.000002   0.141651  -0.191448
     11      -0.000001  -0.490760   0.495815  -0.499993  -0.000011   0.000002
     12       0.438502  -0.000014  -0.000009  -0.000004   0.468037  -0.462603
     13      -0.236572   0.000006   0.000006   0.000002  -0.143274   0.200840
     14      -0.000025  -0.502199  -0.480566  -0.500010  -0.000002   0.000000
     15      -0.438495   0.000007   0.000012   0.000009  -0.468041  -0.462600
     16      -0.236570   0.000004   0.000009   0.000004  -0.143271  -0.200844
     17      -0.000017  -0.502203  -0.480592   0.499990   0.000008   0.000003
                 12         13         14         15         16         17    
      0       0.068395   0.311457   0.038905   0.056802  -0.000002  -0.000000
      1      -0.000001   0.000002  -0.000000   0.000002   0.071090  -0.069301
      2      -0.000000   0.000000   0.000000   0.000000   0.000000   0.000000
      3       0.068971  -0.313210   0.046278  -0.051062   0.000002   0.000001
      4       0.000001  -0.000002   0.000001  -0.000003  -0.068209  -0.072046
      5      -0.000000  -0.000000  -0.000000   0.000000  -0.000000  -0.000000
      6      -0.418067  -0.235850  -0.237616  -0.271464   0.269979  -0.259332
      7      -0.288132  -0.374546   0.400202   0.456208  -0.429703   0.412596
      8       0.000003  -0.000002   0.000001   0.000000  -0.000000  -0.000001
      9      -0.418074  -0.235843  -0.237616  -0.271481  -0.269957   0.259335
     10       0.288134   0.374542  -0.400203  -0.456236  -0.429670   0.412600
     11       0.000000   0.000002  -0.000001  -0.000001  -0.000000  -0.000001
     12      -0.400331   0.246281  -0.269894   0.237289   0.259720   0.270213
     13       0.277872  -0.381942  -0.456852   0.398705   0.412499   0.429521
     14      -0.000001   0.000003  -0.000000  -0.000001   0.000000   0.000000
     15      -0.400334   0.246298  -0.269888   0.237260  -0.259746  -0.270223
     16      -0.277872   0.381948   0.456839  -0.398662   0.412540   0.429536
     17       0.000002  -0.000002   0.000001  -0.000000  -0.000000   0.000000


-----------
IR SPECTRUM
-----------

 Mode   freq       eps      Int      T**2         TX        TY        TZ
       cm**-1   L/(mol*cm) km/mol    a.u.
----------------------------------------------------------------------------
  6:    833.76   0.000067    0.34  0.000025  ( 0.000004 -0.005017 -0.000001)
  7:    978.19   0.019871  100.42  0.006339  ( 0.000001 -0.000001 -0.079619)
  8:    984.80   0.000005    0.02  0.000002  ( 0.000001 -0.000001  0.001239)
  9:   1063.98   0.000000    0.00  0.000000  (-0.000000  0.000000 -0.000002)
 10:   1245.61   0.000007    0.04  0.000002  (-0.000002  0.001362 -0.000001)
 11:   1380.82   0.000001    0.00  0.000000  ( 0.000445  0.000000  0.000000)
 12:   1481.05   0.002025   10.23  0.000427  (-0.020657 -0.000000  0.000000)
 13:   1688.73   0.000000    0.00  0.000000  (-0.000087  0.000000 -0.000001)
 14:   3128.22   0.003255   16.45  0.000325  ( 0.018021  0.000000 -0.000000)
 15:   3139.88   0.000008    0.04  0.000001  ( 0.000879 -0.000000 -0.000000)
 16:   3195.79   0.000009    0.05  0.000001  ( 0.000000  0.000962  0.000000)
 17:   3223.43   0.004775   24.13  0.000462  (-0.000000 -0.021501 -0.000000)

* The epsilon (eps) is given for a Dirac delta lineshape.
** The dipole moment derivative (T) already includes vibrational overlap.

The first frequency considered to be a vibration is 6
The total number of vibrations considered is 12


--------------------------
THERMOCHEMISTRY AT 298.15K
--------------------------

Temperature         ...   298.15 K
Pressure            ...     1.00 atm
Total Mass          ...    28.05 AMU
Quasi RRHO          ...     True
Cut-Off Frequency   ...     1.00 cm^-1

Throughout the following assumptions are being made:
  (1) The electronic state is orbitally nondegenerate
  (2) There are no thermally accessible electronically excited states
  (3) Hindered rotations indicated by low frequency modes are not
      treated as such but are treated as vibrations and this may
      cause some error
  (4) All equations used are the standard statistical mechanics
      equations for an ideal gas
  (5) All vibrations are strictly harmonic

freq.     833.76  E(vib)   ...       0.04 
freq.     978.19  E(vib)   ...       0.03 
freq.     984.80  E(vib)   ...       0.02 
freq.    1063.98  E(vib)   ...       0.02 
freq.    1245.61  E(vib)   ...       0.01 
freq.    1380.82  E(vib)   ...       0.01 
freq.    1481.05  E(vib)   ...       0.00 
freq.    1688.73  E(vib)   ...       0.00 
freq.    3128.22  E(vib)   ...       0.00 
freq.    3139.88  E(vib)   ...       0.00 
freq.    3195.79  E(vib)   ...       0.00 
freq.    3223.43  E(vib)   ...       0.00 

------------
INNER ENERGY
------------

The inner energy is: U= E(el) + E(ZPE) + E(vib) + E(rot) + E(trans)
    E(el)   - is the total energy from the electronic structure calculation
              = E(kin-el) + E(nuc-el) + E(el-el) + E(nuc-nuc)
    E(ZPE)  - the the zero temperature vibrational energy from the frequency calculation
    E(vib)  - the the finite temperature correction to E(ZPE) due to population
              of excited vibrational states
    E(rot)  - is the rotational thermal energy
    E(trans)- is the translational thermal energy

Summary of contributions to the inner energy U:
Electronic energy                ...    -78.56733334 Eh
Zero point energy                ...      0.05090396 Eh      31.94 kcal/mol
Thermal vibrational correction   ...      0.00020664 Eh       0.13 kcal/mol
Thermal rotational correction    ...      0.00141627 Eh       0.89 kcal/mol
Thermal translational correction ...      0.00141627 Eh       0.89 kcal/mol
-----------------------------------------------------------------------
Total thermal energy                    -78.51339019 Eh


Summary of corrections to the electronic energy:
(perhaps to be used in another calculation)
Total thermal correction                  0.00303919 Eh       1.91 kcal/mol
Non-thermal (ZPE) correction              0.05090396 Eh      31.94 kcal/mol
-----------------------------------------------------------------------
Total correction                          0.05394315 Eh      33.85 kcal/mol


--------
ENTHALPY
--------

The enthalpy is H = U + kB*T
                kB is Boltzmann's constant
Total thermal energy              ...    -78.51339019 Eh 
Thermal Enthalpy correction       ...      0.00094421 Eh       0.59 kcal/mol
-----------------------------------------------------------------------
Total Enthalpy                    ...    -78.51244598 Eh


Note: Rotational entropy computed according to Herzberg 
Infrared and Raman Spectra, Chapter V,1, Van Nostrand Reinhold, 1945 
Point Group:  D2h, Symmetry Number:   4  
Rotational constants in cm-1:     4.928774     1.011502     0.839265 

Vibrational entropy computed according to the QRRHO of S. Grimme
Chem.Eur.J. 2012 18 9955 using a reference frequency of 100.0 cm-1


-------
ENTROPY
-------

The entropy contributions are T*S = T*(S(el)+S(vib)+S(rot)+S(trans))
     S(el)   - electronic entropy
     S(vib)  - vibrational entropy
     S(rot)  - rotational entropy
     S(trans)- translational entropy
The entropies will be listed as multiplied by the temperature to get
units of energy

Electronic entropy                ...      0.00000000 Eh      0.00 kcal/mol
Vibrational entropy               ...      0.00025057 Eh      0.16 kcal/mol
Rotational entropy                ...      0.00752620 Eh      4.72 kcal/mol
Translational entropy             ...      0.01707111 Eh     10.71 kcal/mol
-----------------------------------------------------------------------
Final entropy term                ...      0.02484788 Eh     15.59 kcal/mol

In case the symmetry of your molecule has not been determined correctly
or in case you have a reason to use a different symmetry number we print 
out the resulting rotational entropy values for sn=1,12:

 non-linear molecules -----------------------------------
|  sn= 1 | S(rot)=       0.00883511 Eh      5.54 kcal/mol|
|  sn= 2 | S(rot)=       0.00818065 Eh      5.13 kcal/mol|
|  sn= 3 | S(rot)=       0.00779782 Eh      4.89 kcal/mol|
|  sn= 4 | S(rot)=       0.00752620 Eh      4.72 kcal/mol|
|  sn= 5 | S(rot)=       0.00731551 Eh      4.59 kcal/mol|
|  sn= 6 | S(rot)=       0.00714336 Eh      4.48 kcal/mol|
|  sn= 7 | S(rot)=       0.00699782 Eh      4.39 kcal/mol|
|  sn= 8 | S(rot)=       0.00687174 Eh      4.31 kcal/mol|
|  sn= 9 | S(rot)=       0.00676053 Eh      4.24 kcal/mol|
|  sn=10 | S(rot)=       0.00666105 Eh      4.18 kcal/mol|
|  sn=11 | S(rot)=       0.00657106 Eh      4.12 kcal/mol|
|  sn=12 | S(rot)=       0.00648891 Eh      4.07 kcal/mol|
 linear molecules ---------------------------------------
|  Dinfh | S(rot)=       0.00549125 Eh      3.45 kcal/mol|
|  Cinfv | S(rot)=       0.00614571 Eh      3.86 kcal/mol|
 --------------------------------------------------------


-------------------
GIBBS FREE ENERGY
-------------------

The Gibbs free energy is G = H - T*S

Total enthalpy                    ...    -78.51244598 Eh 
Total entropy correction          ...     -0.02484788 Eh    -15.59 kcal/mol
-----------------------------------------------------------------------
Final Gibbs free energy         ...    -78.53729385 Eh

For completeness - the Gibbs free energy minus the electronic energy
G-E(el)                           ...      0.03003948 Eh     18.85 kcal/mol



--------------------------------
SUGGESTED CITATIONS FOR THIS RUN
--------------------------------

Below you find a list of papers that are relevant to this ORCA run
We neither can nor want to force you to cite these papers, but we appreciate if you do
You receive ORCA, which is the product of decades of hard work by many enthusiastic individuals, for free
The only thing we kindly ask in return is that you cite our papers,
We deeply appreciate it, if you show your appreciation for ORCA by not just citing the generic ORCA reference.

Please note that relegating all ORCA citations to the supporting information does *not* help us.
SI sections are not indexed - citations you put there will not count into any citation statistics
But we need these citations in order to attract the funding resources that allow us to do what we are doing

Therefore, if you are a happy ORCA user, please consider citing a few of the papers listed below in the main body of your paper

In addition to the list printed below, the program has created the file C2H4_Freq-B3LYP.bibtex that contains the list in bibtex format
You can import this file easily into all common literature databanks and citation aid programs


List of essential papers. We consider these as the minimum necessary citations

  1. Neese,F.
     Software update: the ORCA program system, version 5.0
     WIRES Comput. Molec. Sci., 2022 12(1)e1606
     doi.org/10.1002/wcms.1606

List of papers to cite with high priority. The work reported in these papers was absolutely
necessary for this run to complete.
Our perspective: the developers of density functionals and basis sets usually get cited in chemistry papers
Good! But without the algorithms to do something with them, the functionals or basis sets would not do anything.
Hence, in our opinion, the algorithm design and method developments papers are equally worthy of getting cited

  1. Neese,F.
     An improvement of the resolution of the identity approximation for the formation of the Coulomb matrix
     J. Comp. Chem., 2003 24(14)1740-1747
     doi.org/10.1002/jcc.10318
  2. Neese,F.; Wennmohs,F.; Hansen,A.; Becker,U.
     Efficient, approximate and parallel Hartree-Fock and hybrid DFT calculations. A 'chain-of-spheres' algorithm for the Hartree-Fock exchange
     Chem. Phys., 2009 356(1-3)98-109
     doi.org/10.1016/j.chemphys.2008.10.036
  3. Bykov,D.; Petrenko,T.; Izsak,R.; Kossmann,S.; Becker,U.; Valeev,E.; Neese,F.
     Efficient implementation of the analytic second derivatives of Hartree-Fock and hybrid DFT energies: a detailed analysis of different approximations
     Molec. Phys., 2015 113 1961-1977
     doi.org/10.1080/00268976.2015.1025114
  4. Helmich-Paris,B.; de Souza,B.; Neese,F.; Izsák,R.
     An improved chain of spheres for exchange algorithm
     J. Chem. Phys., 2021 155 104109
     doi.org/doi: 10.1063/5.0058766.
  5. Neese,F.
     The SHARK Integral Generation and Digestion System
     J. Comp. Chem., 2022  1-16
     doi.org/10.1002/jcc.26942

List of suggested additional citations. These are papers that are important in the 'surrounding' of 
of this run, or papers that preceded the highly important papers. If you like your results we are grateful for a citation.

  1. Izsak,R.; Neese,F.
     An overlap fitted chain of spheres exchange method
     J. Chem. Phys., 2011 135 144105
     doi.org/10.1063/1.3646921
  2. Izsak,R.; Hansen,A.; Neese,F.
     The resolution of identity and chain of spheres approximations for the LPNO-CCSD singles Fock term
     Molec. Phys., 2012 110 2413-2417
     doi.org/10.1080/00268976.2012.687466
  3. Neese,F.
     The ORCA program system
     WIRES Comput. Molec. Sci., 2012 2(1)73-78
     doi.org/10.1002/wcms.81
  4. Izsak,R.; Neese,F.; Klopper,W.
     Robust fitting techniques in the chain of spheres approximation to the Fock exchange: The role of the complementary space
     J. Chem. Phys., 2013 139 
     doi.org/10.1063/1.4819264
  5. Neese,F.
     Software update: the ORCA program system, version 4.0
     WIRES Comput. Molec. Sci., 2018 8(1)1-6
     doi.org/10.1002/wcms.1327
  6. Neese,F.; Wennmohs,F.; Becker,U.; Riplinger,C.
     The ORCA quantum chemistry program package
     J. Chem. Phys., 2020 152 Art. No. L224108
     doi.org/10.1063/5.0004608

List of optional additional citations

  1. Neese,F.
     Approximate second-order SCF convergence for spin unrestricted wavefunctions
     Chem. Phys. Lett., 2000 325(1-3)93-98
     doi.org/10.1016/s0009-2614(00)00662-x

Timings for individual modules:

Sum of individual times          ...      466.328 sec (=   7.772 min)
Startup calculation              ...        2.630 sec (=   0.044 min)   0.6 %
SCF iterations                   ...       31.971 sec (=   0.533 min)   6.9 %
Property calculations            ...        0.055 sec (=   0.001 min)   0.0 %
SCF Gradient evaluation          ...       38.103 sec (=   0.635 min)   8.2 %
Geometry relaxation              ...        0.061 sec (=   0.001 min)   0.0 %
Numerical frequency calculation  ...      393.508 sec (=   6.558 min)  84.4 %
                             ****ORCA TERMINATED NORMALLY****
TOTAL RUN TIME: 0 days 0 hours 7 minutes 38 seconds 506 msec
