
                                 *****************
                                 * O   R   C   A *
                                 *****************

                                            #,                                       
                                            ###                                      
                                            ####                                     
                                            #####                                    
                                            ######                                   
                                           ########,                                 
                                     ,,################,,,,,                         
                               ,,#################################,,                 
                          ,,##########################################,,             
                       ,#########################################, ''#####,          
                    ,#############################################,,   '####,        
                  ,##################################################,,,,####,       
                ,###########''''           ''''###############################       
              ,#####''   ,,,,##########,,,,          '''####'''          '####       
            ,##' ,,,,###########################,,,                        '##       
           ' ,,###''''                  '''############,,,                           
         ,,##''                                '''############,,,,        ,,,,,,###''
      ,#''                                            '''#######################'''  
     '                                                          ''''####''''         
             ,#######,   #######,   ,#######,      ##                                
            ,#'     '#,  ##    ##  ,#'     '#,    #''#        ,####,   ,####,        
            ##       ##  ##   ,#'  ##            #'  '#       #'       #'  '#        
            ##       ##  #######   ##           ,######,      #####,   #    #        
            '#,     ,#'  ##    ##  '#,     ,#' ,#      #,     #,   #   #,  ,#        
             '#######'   ##     ##  '#######'  #'      '#     '####' # '####'        



                #########################################################
                #                        -***-                          #
                #          Department of theory and spectroscopy        #
                #                                                       #
                #                      Frank Neese                      #
                #                                                       #
                #     Directorship, Architecture, Infrastructure        #
                #                    SHARK, DRIVERS                     #
                #        Core code/Algorithms in most modules           #
                #                                                       #
                #        Max Planck Institute fuer Kohlenforschung      #
                #                Kaiser Wilhelm Platz 1                 #
                #                 D-45470 Muelheim/Ruhr                 #
                #                      Germany                          #
                #                                                       #
                #                  All rights reserved                  #
                #                        -***-                          #
                #########################################################


                         Program Version 6.0.1  -  RELEASE   -


 With contributions from (in alphabetic order):
[Max-Planck-Institut fuer Kohlenforschung]                               
  Daniel Aravena         : Magnetic Suceptibility                        
  Michael Atanasov       : Ab Initio Ligand Field Theory (pilot matlab implementation)
  Alexander A. Auer      : GIAO ZORA, VPT2 properties, NMR spectrum      
  Ute Becker             : All parallelization in ORCA, NUMFREQ, NUMCALC 
  Giovanni Bistoni       : ED, misc. LED, open-shell LED, HFLD           
  Martin Brehm           : Molecular dynamics                            
  Dmytro Bykov           : pre 5.0 version of the SCF Hessian            
  Marcos Casanova-Páez   : Triplet and SCS-CIS(D). UHF-(DLPNO)-IP/EA/STEOM-CCSD. UHF-CVS-IP/STEOM-CCSD   
  Vijay G. Chilkuri      : MRCI spin determinant printing, contributions to CSF-ICE 
  Pauline Colinet        : FMM embedding                                 
  Dipayan Datta          : RHF DLPNO-CCSD density                        
  Achintya Kumar Dutta   : EOM-CC, STEOM-CC                              
  Nicolas Foglia         : Exact transition moments, OPA infrastructure, MCD improvements    
  Dmitry Ganyushin       : Spin-Orbit,Spin-Spin,Magnetic field MRCI      
  Miquel Garcia-Rates    : C-PCM and meta-GGA Hessian, CCSD/C-PCM, Gaussian charge scheme 
  Tiago L. C. Gouveia    : GS-ROHF, GS-ROCIS                             
  Yang Guo               : DLPNO-NEVPT2, F12-NEVPT2, CIM, IAO-localization        
  Andreas Hansen         : Spin unrestricted coupled pair/coupled cluster methods 
  Ingolf Harden          : AUTO-CI MPn and infrastructure                
  Benjamin Helmich-Paris : MC-RPA, TRAH-(SCF,CASSCF), AVAS, COSX integrals, SCF dyn. polar. 
  Lee Huntington         : MR-EOM, pCC                                   
  Robert Izsak           : Overlap fitted RIJCOSX, COSX-SCS-MP3, EOM     
  Riya Kayal             : Wick's Theorem for AUTO-CI, AUTO-CI UHF-CCSDT 
  Emily Kempfer          : AUTO-CI, RHF CISDT and CCSDT                  
  Christian Kollmar      : KDIIS, OOCD, Brueckner-CCSD(T), CCSD density, CASPT2, CASPT2-K, improved NEVPT2 
  Axel Koslowski         : Symmetry handling                             
  Simone Kossmann        : meta-GGA functionals, TD-DFT gradient, OOMP2, (MP2 Hessian; deprecated post 5.0) 
  Lucas Lang             : DCDCAS                                        
  Marvin Lechner         : AUTO-CI (C++ implementation), FIC-MRCC        
  Spencer Leger          : CASSCF response                               
  Dagmar Lenk            : GEPOL surface, SMD, ORCA-2-JSON               
  Dimitrios Liakos       : Extrapolation schemes; Compound Job, initial MDCI parallelization 
  Dimitrios Manganas     : Further ROCIS development; embedding schemes. LFT, Crystal Embedding 
  Dimitrios Pantazis     : SARC Basis sets                               
  Anastasios Papadopoulos: AUTO-CI, single reference methods and gradients 
  Taras Petrenko         : pre 6.0 DFT Hessian and TD-DFT gradient, (ASA, deprecated), ECA, 1-Electron XAS/XES, NRVS 
  Peter Pinski           : DLPNO-MP2, DLPNO-MP2 Gradient                 
  Christoph Reimann      : Effective Core Potentials                     
  Marius Retegan         : Local ZFS, SOC                                
  Christoph Riplinger    : Optimizer, TS searches, QM/MM, DLPNO-CCSD(T), (RO)-DLPNO pert. Triples 
  Michael Roemelt        : Original ROCIS implementation                 
  Masaaki Saitow         : Open-shell DLPNO-CCSD energy and density      
  Barbara Sandhoefer     : DKH picture change effects                    
  Kantharuban Sivalingam : CASSCF convergence/infrastructure, NEVPT2 and variants, FIC-MRCI 
  Bernardo de Souza      : ESD, SOC TD-DFT                               
  Georgi L. Stoychev     : AutoAux, RI-MP2 NMR, DLPNO-MP2 response, X2C  
  Van Anh Tran           : RI-MP2 g-tensors                              
  Willem Van den Heuvel  : Paramagnetic NMR                              
  Zikuan Wang            : NOTCH, Electric field optimization            
  Frank Wennmohs         : Technical directorship and infrastructure     
  Hang Xu                : AUTO-CI-Response properties                   
                                                                         
[FACCTs GmbH]                                                            
  Markus Bursch, Miquel Garcia-Rates, Christoph Riplinger, Bernardo de Souza, Georgi L. Stoychev 
                                                                 
  APM, Basis sets (HGBS, AHGBS, def-TZVP (Ac-Lr), def2-XVPD (La-Lu)), CI-OPT, improved COSX, DLPNO-Multilevel,           
  DOCKER, DRACO, updates on ESD, GOAT, IRC, LR-CPCM, MBIS, meta-GGA TD-DFT gradient, ML-optimized integration grids, 
  MM, NACMEs, nearIR, NEB, NEB-TS, NL-DFT gradient (VV10), 2- and 3-layer-ONIOM, interface openCOSMO-RS, QMMM,   
  Crystal-QMMM, SF, symmetry and pop. for TD-DFT, r2SCAN hybrids, SOLVATOR                                   
                                                                         
[Other institutions]                                                     
  V. Asgeirsson          : NEB                                           
  Christoph Bannwarth    : sTDA-DFT, sTD-DFT, PBEh-3c, B97-3c, D3        
  Sebastian Ehlert       : rSCAN, r2SCAN, r2SCAN-3c, D4, dhf basis sets  
  Marvin Friede          : D4 for Fr, Ra, Ac-Lr                          
  Lars Goerigk           : TD-DFT with DH, B97 family of functionals     
  Stefan Grimme          : VdW corrections, initial TS optimization, DFT functionals, gCP, sTDA/sTD-DF 
  Waldemar Hujo          : DFT-NL                                        
  H. Jonsson             : NEB                                           
  Holger Kruse           : gCP                                           
  Marcel Mueller         : wB97X-3c, vDZP basis set                      
  Hagen Neugebauer       : wr2SCAN                                       
  Tobias Risthaus        : range-separated hybrid DFT                    
  Lukas Wittmann         : regularized MP2, r2SCAN double-hybrids, wr2SCAN        
                                                                         
We gratefully acknowledge several colleagues who have allowed us to      
interface, adapt or use parts of their codes:                            
  Ed Valeev, F. Pavosevic, A. Kumar             : LibInt (2-el integral package), F12 methods 
  Garnet Chan, S. Sharma, J. Yang, R. Olivares  : DMRG                   
  Ulf Ekstrom                                   : XCFun DFT Library      
  Mihaly Kallay                                 : mrcc  (arbitrary order and MRCC methods)
  Frank Weinhold                                : gennbo (NPA and NBO analysis)           
  Simon Mueller                                 : openCOSMO-RS                            
  Christopher J. Cramer and Donald G. Truhlar   : smd solvation model                     
  S Lehtola, MJT Oliveira, MAL Marques          : LibXC Library                           
  Liviu Ungur et al                             : ANISO software                          


 Your calculation uses the libint2 library for the computation of 2-el integrals
 For citations please refer to: http://libint.valeyev.net

 Your ORCA version has been built with support for libXC version: 6.2.2
 For citations please refer to: https://libxc.gitlab.io

 This ORCA versions uses:
   CBLAS   interface :  Fast vector & matrix operations
   LAPACKE interface :  Fast linear algebra routines
   Shared memory     :  Shared parallel matrices


NOTE: MaxCore=4000 MB was set to SCF,MP2,MDCI,CIPSI,MRCI and CIS
      => If you want to overwrite this, your respective input block should be placed after the MaxCore statement
Warning: RI is on but no J-basis has been assigned. Assigning Def2/J (nothing to worry about!)
================================================================================

----- Orbital basis set information -----
Your calculation utilizes the basis: def2-TZVPP
   F. Weigend and R. Ahlrichs, Phys. Chem. Chem. Phys. 7, 3297 (2005).

----- AuxJ basis set information -----
Your calculation utilizes the auxiliary basis: def2/J
   F. Weigend, Phys. Chem. Chem. Phys. 8, 1057 (2006).

================================================================================
                                        WARNINGS
                       Please study these warnings very carefully!
================================================================================


WARNING: Analytical and numerical frequencies both set to true
  ===> : Disabling Anfreq

WARNING: Geometry Optimization
  ===> : Switching off AutoStart
         For restart on a previous wavefunction, please use MOREAD

================================================================================
                                       INPUT FILE
================================================================================
NAME = C2H4_Freq-PBE0.inp
|  1> ! PBE0 def2-TZVPP Opt TightOpt VeryTightSCF
|  2> 
|  3> ! Freq
|  4> ! NumFreq
|  5> 
|  6> %scf
|  7>    MaxIter 400          # Máximo de iteraciones permitidas para el SCF
|  8> end
|  9> 
| 10> %geom
| 11>    TolRMSD 1.0e-5
| 12>    TolMAXD 1.0e-4
| 13>    TolRMSG 1.0e-5
| 14>    TolMAXG 1.0e-4
| 15> end
| 16> 
| 17> %pal
| 18>    nprocs 1
| 19> end
| 20> 
| 21> 
| 22> %MaxCore 4000            # Memoria máxima por núcleo (en MB)
| 23> 
| 24> * xyz 0 1
| 25> C       0.66559385    0.00000000    0.00000000
| 26> C      -0.66559385    0.00000000    0.00000000
| 27> H       1.23167063   -0.92149339    0.00000000
| 28> H       1.23167063    0.92149339    0.00000000
| 29> H      -1.23167063   -0.92149339    0.00000000
| 30> H      -1.23167063    0.92149339    0.00000000
| 31> **                         ****END OF INPUT****
================================================================================

                       *****************************
                       * Geometry Optimization Run *
                       *****************************

Geometry optimization settings:
Update method            Update   .... BFGS
Choice of coordinates    CoordSys .... (2022) Redundant Internals
Initial Hessian          InHess   .... Almloef's Model
Max. no of cycles        MaxIter  .... 50

Convergence Tolerances:
Energy Change            TolE     ....  1.0000e-06 Eh
Max. Gradient            TolMAXG  ....  1.0000e-04 Eh/bohr
RMS Gradient             TolRMSG  ....  1.0000e-05 Eh/bohr
Max. Displacement        TolMAXD  ....  1.0000e-04 bohr
RMS Displacement         TolRMSD  ....  1.0000e-05 bohr
Strict Convergence                .... False

------------------------------------------------------------------------------
                        ORCA OPTIMIZATION COORDINATE SETUP
------------------------------------------------------------------------------

The optimization will be done in redundant internal coordinates (2022)
Making redundant internal coordinates   ...  (2022 redundants) done
Evaluating the initial hessian          ...  (Almloef) done
Evaluating the coordinates              ...  done
Calculating the B-matrix                .... done
Calculating the G-matrix                .... done
Diagonalizing the G-matrix              .... done
The first mode is                       ....    3
The number of degrees of freedom        ....   12

    -----------------------------------------------------------------
                    Redundant Internal Coordinates


    -----------------------------------------------------------------
         Definition                    Initial Value    Approx d2E/dq
    -----------------------------------------------------------------
      1. B(C   1,C   0)                  1.3312         0.775479   
      2. B(H   2,C   0)                  1.0815         0.371553   
      3. B(H   3,C   0)                  1.0815         0.371553   
      4. B(H   4,C   1)                  1.0815         0.371553   
      5. B(H   5,C   1)                  1.0815         0.371553   
      6. A(H   2,C   0,H   3)          116.8749         0.293720   
      7. A(C   1,C   0,H   2)          121.5626         0.368593   
      8. A(C   1,C   0,H   3)          121.5626         0.368593   
      9. A(H   4,C   1,H   5)          116.8749         0.293720   
     10. A(C   0,C   1,H   5)          121.5626         0.368593   
     11. A(C   0,C   1,H   4)          121.5626         0.368593   
     12. D(H   4,C   1,C   0,H   3)    180.0000         0.043173   
     13. D(H   5,C   1,C   0,H   2)    180.0000         0.043173   
     14. D(H   5,C   1,C   0,H   3)      0.0000         0.043173   
     15. D(H   4,C   1,C   0,H   2)      0.0000         0.043173   
    -----------------------------------------------------------------

Number of atoms                         .... 6
Number of degrees of freedom            .... 15


         *************************************************************
         *                GEOMETRY OPTIMIZATION CYCLE   1            *
         *************************************************************
---------------------------------
CARTESIAN COORDINATES (ANGSTROEM)
---------------------------------
  C      0.665594    0.000000    0.000000
  C     -0.665594    0.000000    0.000000
  H      1.231671   -0.921493    0.000000
  H      1.231671    0.921493    0.000000
  H     -1.231671   -0.921493    0.000000
  H     -1.231671    0.921493    0.000000

----------------------------
CARTESIAN COORDINATES (A.U.)
----------------------------
  NO LB      ZA    FRAG     MASS         X           Y           Z
   0 C     6.0000    0    12.011    1.257790    0.000000    0.000000
   1 C     6.0000    0    12.011   -1.257790    0.000000    0.000000
   2 H     1.0000    0     1.008    2.327520   -1.741370    0.000000
   3 H     1.0000    0     1.008    2.327520    1.741370    0.000000
   4 H     1.0000    0     1.008   -2.327520   -1.741370    0.000000
   5 H     1.0000    0     1.008   -2.327520    1.741370    0.000000

--------------------------------
INTERNAL COORDINATES (ANGSTROEM)
--------------------------------
 C      0   0   0     0.000000000000     0.00000000     0.00000000
 C      1   0   0     1.331187700000     0.00000000     0.00000000
 H      1   2   0     1.081477225220   121.56255916     0.00000000
 H      1   2   3     1.081477225220   121.56255916   180.00000121
 H      2   1   3     1.081477225220   121.56255916     0.00000000
 H      2   1   3     1.081477225220   121.56255916   180.00000121

---------------------------
INTERNAL COORDINATES (A.U.)
---------------------------
 C      0   0   0     0.000000000000     0.00000000     0.00000000
 C      1   0   0     2.515580185845     0.00000000     0.00000000
 H      1   2   0     2.043695775738   121.56255916     0.00000000
 H      1   2   3     2.043695775738   121.56255916   180.00000121
 H      2   1   3     2.043695775738   121.56255916     0.00000000
 H      2   1   3     2.043695775738   121.56255916   180.00000121

---------------------
BASIS SET INFORMATION
---------------------
There are 2 groups of distinct atoms

 Group   1 Type C   : 11s6p2d1f contracted to 5s3p2d1f pattern {62111/411/11/1}
 Group   2 Type H   : 5s2p1d contracted to 3s2p1d pattern {311/11/1}

Atom   0C    basis set group =>   1
Atom   1C    basis set group =>   1
Atom   2H    basis set group =>   2
Atom   3H    basis set group =>   2
Atom   4H    basis set group =>   2
Atom   5H    basis set group =>   2
---------------------------------
AUXILIARY/J BASIS SET INFORMATION
---------------------------------
There are 2 groups of distinct atoms

 Group   1 Type C   : 12s5p4d2f1g contracted to 6s4p3d1f1g pattern {711111/2111/211/2/1}
 Group   2 Type H   : 5s2p1d contracted to 3s1p1d pattern {311/2/1}

Atom   0C    basis set group =>   1
Atom   1C    basis set group =>   1
Atom   2H    basis set group =>   2
Atom   3H    basis set group =>   2
Atom   4H    basis set group =>   2
Atom   5H    basis set group =>   2
------------------------------------------------------------------------------
                             ORCA STARTUP CALCULATIONS
                           -- RI-GTO INTEGRALS CHOSEN --
------------------------------------------------------------------------------
------------------------------------------------------------------------------
                   ___                                                        
                  /   \      - P O W E R E D   B Y -                         
                 /     \                                                     
                 |  |  |   _    _      __       _____    __    __             
                 |  |  |  | |  | |    /  \     |  _  \  |  |  /  |          
                  \  \/   | |  | |   /    \    | | | |  |  | /  /          
                 / \  \   | |__| |  /  /\  \   | |_| |  |  |/  /          
                |  |  |   |  __  | /  /__\  \  |    /   |      \           
                |  |  |   | |  | | |   __   |  |    \   |  |\   \          
                \     /   | |  | | |  |  |  |  | |\  \  |  | \   \       
                 \___/    |_|  |_| |__|  |__|  |_| \__\ |__|  \__/        
                                                                              
                      - O R C A' S   B I G   F R I E N D -                    
                                      &                                       
                       - I N T E G R A L  F E E D E R -                       
                                                                              
 v1 FN, 2020, v2 2021, v3 2022-2024                                           
------------------------------------------------------------------------------


----------------------
SHARK INTEGRAL PACKAGE
----------------------

Number of atoms                             ...      6
Number of basis functions                   ...    118
Number of shells                            ...     46
Maximum angular momentum                    ...      3
Integral batch strategy                     ... SHARK/LIBINT Hybrid
RI-J (if used) integral strategy            ... SPLIT-RIJ (Revised 2003 algorithm where possible)
Printlevel                                  ...      1
Contraction scheme used                     ... SEGMENTED contraction
Prescreening option                         ... SCHWARTZ
   Thresh                                   ... 1.000e-12
   Tcut                                     ... 1.000e-14
   Tpresel                                  ... 1.000e-14 
Coulomb Range Separation                    ... NOT USED
Exchange Range Separation                   ... NOT USED
Multipole approximations                    ... NOT USED
Finite Nucleus Model                        ... NOT USED
CABS basis                                  ... NOT available
Auxiliary Coulomb fitting basis             ... AVAILABLE
   # of basis functions in Aux-J            ...    142
   # of shells in Aux-J                     ...     50
   Maximum angular momentum in Aux-J        ...      4
Auxiliary J/K fitting basis                 ... NOT available
Auxiliary Correlation fitting basis         ... NOT available
Auxiliary 'external' fitting basis          ... NOT available

Checking pre-screening integrals            ... done (  0.0 sec) Dimension = 46
Check shell pair data                       ... done (  0.0 sec)
Shell pair information
Shell pair cut-off parameter TPreSel        ...   1.0e-14
Total number of shell pairs                 ...      1081
Shell pairs after pre-screening             ...      1080
Total number of primitive shell pairs       ...      2684
Primitive shell pairs kept                  ...      2469
          la=0 lb=0:    252 shell pairs
          la=1 lb=0:    308 shell pairs
          la=1 lb=1:    105 shell pairs
          la=2 lb=0:    176 shell pairs
          la=2 lb=1:    112 shell pairs
          la=2 lb=2:     36 shell pairs
          la=3 lb=0:     44 shell pairs
          la=3 lb=1:     28 shell pairs
          la=3 lb=2:     16 shell pairs
          la=3 lb=3:      3 shell pairs

Calculating one electron integrals          ... done (  0.0 sec)
Calculating RI/J V-Matrix + Cholesky decomp.... done (  0.0 sec)
Calculating Nuclear repulsion               ... done (  0.0 sec) ENN=     33.423497764107 Eh

Diagonalization of the overlap matrix:
Smallest eigenvalue                        ... 1.876e-04
Time for diagonalization                   ...    0.001 sec
Threshold for overlap eigenvalues          ... 1.000e-07
Number of eigenvalues below threshold      ... 0
Time for construction of square roots      ...    0.001 sec
Total time needed                          ...    0.005 sec

-------------------
DFT GRID GENERATION
-------------------

General Integration Accuracy     IntAcc      ... 4.388
Radial Grid Type                 RadialGrid  ... OptM3 with GC (2021)
Angular Grid (max. ang.)         AngularGrid ... 4 (Lebedev-302)
Angular grid pruning method      GridPruning ... 4 (adaptive)
Weight generation scheme         WeightScheme... mBecke (2022)
Basis function cutoff            BFCut       ... 1.0000e-12
Integration weight cutoff        WCut        ... 1.0000e-14
Partially contracted basis set               ... off
Rotationally invariant grid construction     ... off
Angular grids for H and He will be reduced by one unit

Total number of grid points                  ...    25284
Total number of batches                      ...      399
Average number of points per batch           ...       63
Average number of grid points per atom       ...     4214

--------------------
COSX GRID GENERATION
--------------------

GRIDX 1
-------
General Integration Accuracy     IntAcc      ... 3.816
Radial Grid Type                 RadialGrid  ... OptM3 with GC (2021)
Angular Grid (max. ang.)         AngularGrid ... 1 (Lebedev-50)
Angular grid pruning method      GridPruning ... 4 (adaptive)
Weight generation scheme         WeightScheme... mBecke (2022)
Basis function cutoff            BFCut       ... 1.0000e-12
Integration weight cutoff        WCut        ... 1.0000e-14
Partially contracted basis set               ... on
Rotationally invariant grid construction     ... off
Angular grids for H and He will be reduced by one unit

Total number of grid points                  ...     3280
Total number of batches                      ...       30
Average number of points per batch           ...      109
Average number of grid points per atom       ...      547
UseSFitting                                  ... on

GRIDX 2
-------
General Integration Accuracy     IntAcc      ... 4.020
Radial Grid Type                 RadialGrid  ... OptM3 with GC (2021)
Angular Grid (max. ang.)         AngularGrid ... 2 (Lebedev-110)
Angular grid pruning method      GridPruning ... 4 (adaptive)
Weight generation scheme         WeightScheme... mBecke (2022)
Basis function cutoff            BFCut       ... 1.0000e-12
Integration weight cutoff        WCut        ... 1.0000e-14
Partially contracted basis set               ... on
Rotationally invariant grid construction     ... off
Angular grids for H and He will be reduced by one unit

Total number of grid points                  ...     6900
Total number of batches                      ...       57
Average number of points per batch           ...      121
Average number of grid points per atom       ...     1150
UseSFitting                                  ... on

GRIDX 3
-------
General Integration Accuracy     IntAcc      ... 4.338
Radial Grid Type                 RadialGrid  ... OptM3 with GC (2021)
Angular Grid (max. ang.)         AngularGrid ... 3 (Lebedev-194)
Angular grid pruning method      GridPruning ... 4 (adaptive)
Weight generation scheme         WeightScheme... mBecke (2022)
Basis function cutoff            BFCut       ... 1.0000e-12
Integration weight cutoff        WCut        ... 1.0000e-14
Partially contracted basis set               ... on
Rotationally invariant grid construction     ... off
Angular grids for H and He will be reduced by one unit

Total number of grid points                  ...    15208
Total number of batches                      ...      123
Average number of points per batch           ...      123
Average number of grid points per atom       ...     2535
UseSFitting                                  ... on
Initializing property integral containers    ... done (  0.0 sec)

SHARK setup successfully completed in   0.3 seconds

Maximum memory used throughout the entire STARTUP-calculation: 13.8 MB
-------------------------------------------------------------------------------
                                 ORCA GUESS
                   Start orbitals & Density for SCF / CASSCF
-------------------------------------------------------------------------------

------------
SCF SETTINGS
------------
Hamiltonian:
 Density Functional     Method          .... DFT(GTOs)
 Exchange Functional    Exchange        .... PBE
   PBE kappa parameter   XKappa         ....  0.804000
   PBE mue parameter    XMuePBE         ....  0.219520
 Correlation Functional Correlation     .... PBE
   PBE beta parameter  CBetaPBE         ....  0.066725
 LDA part of GGA corr.  LDAOpt          .... PW91-LDA
 Gradients option       PostSCFGGA      .... off
 Hybrid DFT is turned on
   Fraction HF Exchange ScalHFX         ....  0.250000
   Scaling of DF-GGA-X  ScalDFX         ....  0.750000
   Scaling of DF-GGA-C  ScalDFC         ....  1.000000
   Scaling of DF-LDA-C  ScalLDAC        ....  1.000000
   Perturbative correction              ....  0.000000
   NL short-range parameter             ....  6.900000
 RI-approximation to the Coulomb term is turned on
   Number of AuxJ basis functions       .... 142
   RIJ-COSX (HFX calculated with COS-X)).... on


General Settings:
 Integral files         IntName         .... C2H4_Freq-PBE0
 Hartree-Fock type      HFTyp           .... RHF
 Total Charge           Charge          ....    0
 Multiplicity           Mult            ....    1
 Number of Electrons    NEL             ....   16
 Basis Dimension        Dim             ....  118
 Nuclear Repulsion      ENuc            ....     33.4234977641 Eh

Convergence Acceleration:
 AO-DIIS                CNVDIIS         .... on
   Start iteration      DIISMaxIt       ....    12
   Startup error        DIISStart       ....  0.200000
   # of expansion vecs  DIISMaxEq       ....     5
   Bias factor          DIISBfac        ....   1.050
   Max. coefficient     DIISMaxC        ....  10.000
 MO-DIIS                CNVKDIIS        .... off
 Trust-Rad. Augm. Hess. CNVTRAH         .... auto
   Auto Start mean grad. ratio tolernc. ....  1.125000
   Auto Start start iteration           ....    50
   Auto Start num. interpolation iter.  ....    10
   Max. Number of Micro iterations      ....    24
   Max. Number of Macro iterations      .... Maxiter - #DIIS iter
   Number of Davidson start vectors     ....     2
   Converg. threshold    (grad. norm)   ....   2.000e-06
   Grad. Scal. Fac. for Micro threshold ....   0.100
   Minimum threshold for Micro iter.    ....   1.000e-02
   NR start threshold (gradient norm)   ....   1.000e-04
   Initial trust radius                 ....   0.400
   Minimum AH scaling param. (alpha)    ....   1.000
   Maximum AH scaling param. (alpha)    .... 1000.000
   Quad. conv. algorithm                .... NR
   White noise on init. David. guess    .... on
   Maximum white noise                  ....   0.010
   Pseudo random numbers                .... off
   Inactive MOs                         .... canonical
   Orbital update algorithm             .... Taylor
   Preconditioner                       .... Diag
   Full preconditioner red. dimension   ....   250
 SOSCF                  CNVSOSCF        .... on
   Start iteration      SOSCFMaxIt      ....   150
   Startup grad/error   SOSCFStart      ....  0.003300
   Hessian update       SOSCFHessUp     .... L-BFGS
 Level Shifting         CNVShift        .... on
   Level shift para.    LevelShift      ....    0.2500
   Turn off err/grad.   ShiftErr        ....    0.0010
 Zerner damping         CNVZerner       .... off
 Static damping         CNVDamp         .... on
   Fraction old density DampFac         ....    0.7000
   Max. Damping (<1)    DampMax         ....    0.9800
   Min. Damping (>=0)   DampMin         ....    0.0000
   Turn off err/grad.   DampErr         ....    0.1000

SCF Procedure:
 Maximum # iterations   MaxIter         ....   400
 SCF integral mode      SCFMode         .... Direct
   Integral package                     .... SHARK and LIBINT hybrid scheme
 Reset frequency        DirectResetFreq ....    20
 Integral Threshold     Thresh          ....  1.000e-12 Eh
 Primitive CutOff       TCut            ....  1.000e-14 Eh

Convergence Tolerance:
 Convergence Check Mode ConvCheckMode   .... Total+1el-Energy
 Convergence forced     ConvForced      .... 0
 Energy Change          TolE            ....  1.000e-09 Eh
 1-El. energy change                    ....  1.000e-06 Eh
 Orbital Gradient       TolG            ....  2.000e-06
 Orbital Rotation angle TolX            ....  2.000e-06
 DIIS Error             TolErr          ....  1.000e-08

------------------------------
INITIAL GUESS: MODEL POTENTIAL
------------------------------
Loading Hartree-Fock densities                     ... done
Calculating cut-offs                               ... done
Initializing the effective Hamiltonian             ... done
Setting up the integral package (SHARK)            ... done
Starting the Coulomb interaction                   ... done (   0.0 sec)
Making the grid                                    ... done (   0.0 sec)
Mapping shells                                     ... done
Starting the XC term evaluation                    ... done (   0.1 sec)
  promolecular density results
     # of electrons  =     15.999376458
     EX              =    -11.355545261
     EC              =     -0.488746296
     EX+EC           =    -11.844291557
Transforming the Hamiltonian                       ... done (   0.0 sec)
Diagonalizing the Hamiltonian                      ... done (   0.0 sec)
Back transforming the eigenvectors                 ... done (   0.0 sec)
Now organizing SCF variables                       ... done
                      ------------------
                      INITIAL GUESS DONE (   0.1 sec)
                      ------------------
             **** ENERGY FILE WAS UPDATED (C2H4_Freq-PBE0.en.tmp) ****
Finished Guess after   0.2 sec
Maximum memory used throughout the entire GUESS-calculation: 9.4 MB

-------------------------------------------------------------------------------------------
                                      ORCA LEAN-SCF
                              memory conserving SCF solver
-------------------------------------------------------------------------------------------

----------------------------------------D-I-I-S--------------------------------------------
Iteration    Energy (Eh)           Delta-E    RMSDP     MaxDP     DIISErr   Damp  Time(sec)
-------------------------------------------------------------------------------------------
               ***  Starting incremental Fock matrix formation  ***
    1    -78.4316620350789435     0.00e+00  1.31e-03  3.05e-02  1.72e-01  0.700   0.8
    2    -78.4684890923036846    -3.68e-02  9.66e-04  2.04e-02  9.52e-02  0.700   0.5
                               ***Turning on AO-DIIS***
    3    -78.4848209718535941    -1.63e-02  4.12e-04  7.11e-03  4.06e-02  0.700   0.5
    4    -78.4940270872120038    -9.21e-03  7.29e-04  1.12e-02  2.20e-02  0.000   0.5
    5    -78.5135152004167480    -1.95e-02  1.21e-04  1.49e-03  5.22e-03  0.000   0.4
                              *** Initializing SOSCF ***
---------------------------------------S-O-S-C-F--------------------------------------
Iteration    Energy (Eh)           Delta-E    RMSDP     MaxDP     MaxGrad    Time(sec)
--------------------------------------------------------------------------------------
    6    -78.5136037564153924    -8.86e-05  5.09e-05  6.84e-04  9.77e-04     0.4
               *** Restarting incremental Fock matrix formation ***
    7    -78.5136106475781332    -6.89e-06  3.17e-05  4.21e-04  1.93e-04     0.7
    8    -78.5136109016127932    -2.54e-07  5.53e-06  9.15e-05  8.47e-05     0.6
    9    -78.5136109901125678    -8.85e-08  2.98e-06  3.94e-05  2.10e-05     0.6
   10    -78.5136109937976698    -3.69e-09  3.80e-07  5.39e-06  4.12e-06     0.6
   11    -78.5136109942981193    -5.00e-10  5.77e-08  7.12e-07  5.35e-07     0.6
                 **** Energy Check signals convergence ****

               *****************************************************
               *                     SUCCESS                       *
               *           SCF CONVERGED AFTER  11 CYCLES          *
               *****************************************************

Recomputing exchange energy using gridx3       ... done (    0.910 sec)
Old exchange energy                            :     -2.935496374 Eh
New exchange energy                            :     -2.935484888 Eh
Exchange energy change after final integration :      0.000011486 Eh
Total energy after final integration           :    -78.513599509 Eh
             **** ENERGY FILE WAS UPDATED (C2H4_Freq-PBE0.en.tmp) ****

----------------
TOTAL SCF ENERGY
----------------

Total Energy       :        -78.51359950861188 Eh           -2136.46366 eV

Components:
Nuclear Repulsion  :         33.42349776410668 Eh             909.49961 eV
Electronic Energy  :       -111.93710875840480 Eh           -3045.96358 eV
One Electron Energy:       -170.43787558217855 Eh           -4637.85038 eV
Two Electron Energy:         58.50076682377374 Eh            1591.88680 eV

Virial components:
Potential Energy   :       -156.60001829820450 Eh           -4261.30314 eV
Kinetic Energy     :         78.08641878959263 Eh            2124.83948 eV
Virial Ratio       :          2.00547061480909

DFT components:
N(Alpha)           :        8.000014299782 electrons
N(Beta)            :        8.000014299782 electrons
N(Total)           :       16.000028599564 electrons
E(X)               :       -8.766910572171 Eh       
E(C)               :       -0.496021799829 Eh       
E(XC)              :       -9.262932372000 Eh       

---------------
SCF CONVERGENCE
---------------

  Last Energy change         ...    5.0045e-10  Tolerance :   1.0000e-09
  Last MAX-Density change    ...    7.1227e-07  Tolerance :   1.0000e-08
  Last RMS-Density change    ...    5.7706e-08  Tolerance :   1.0000e-09
  Last DIIS Error            ...    9.7733e-04  Tolerance :   1.0000e-08
  Last Orbital Gradient      ...    5.3452e-07  Tolerance :   2.0000e-06
  Last Orbital Rotation      ...    3.5174e-07  Tolerance :   2.0000e-06


----------------
ORBITAL ENERGIES
----------------

  NO   OCC          E(Eh)            E(eV) 
   0   2.0000     -10.222970      -278.1812 
   1   2.0000     -10.222020      -278.1553 
   2   2.0000      -0.785426       -21.3725 
   3   2.0000      -0.599314       -16.3082 
   4   2.0000      -0.485817       -13.2197 
   5   2.0000      -0.434597       -11.8260 
   6   2.0000      -0.368211       -10.0195 
   7   2.0000      -0.289280        -7.8717 
   8   0.0000       0.003119         0.0849 
   9   0.0000       0.077710         2.1146 
  10   0.0000       0.102382         2.7859 
  11   0.0000       0.104596         2.8462 
  12   0.0000       0.164288         4.4705 
  13   0.0000       0.201370         5.4795 
  14   0.0000       0.219932         5.9847 
  15   0.0000       0.231052         6.2872 
  16   0.0000       0.231583         6.3017 
  17   0.0000       0.278189         7.5699 
  18   0.0000       0.322591         8.7782 
*Only the first 10 virtual orbitals were printed.

                    ********************************
                    * MULLIKEN POPULATION ANALYSIS *
                    ********************************

-----------------------
MULLIKEN ATOMIC CHARGES
-----------------------
   0 C :   -0.199669
   1 C :   -0.199675
   2 H :    0.099835
   3 H :    0.099835
   4 H :    0.099837
   5 H :    0.099837
Sum of atomic charges:   -0.0000000

--------------------------------
MULLIKEN REDUCED ORBITAL CHARGES
--------------------------------
  0 C s       :     3.178430  s :     3.178430
      pz      :     0.960044  p :     2.948411
      px      :     0.965577
      py      :     1.022790
      dz2     :     0.003218  d :     0.068465
      dxz     :     0.013297
      dyz     :     0.000000
      dx2y2   :     0.009327
      dxy     :     0.042624
      f0      :     0.000895  f :     0.004363
      f+1     :     0.000378
      f-1     :     0.000601
      f+2     :     0.000787
      f-2     :    -0.000000
      f+3     :     0.000434
      f-3     :     0.001269

  1 C s       :     3.178440  s :     3.178440
      pz      :     0.960044  p :     2.948408
      px      :     0.965577
      py      :     1.022787
      dz2     :     0.003218  d :     0.068464
      dxz     :     0.013297
      dyz     :    -0.000000
      dx2y2   :     0.009326
      dxy     :     0.042623
      f0      :     0.000895  f :     0.004363
      f+1     :     0.000378
      f-1     :     0.000601
      f+2     :     0.000787
      f-2     :    -0.000000
      f+3     :     0.000434
      f-3     :     0.001269

  2 H s       :     0.860382  s :     0.860382
      pz      :     0.011772  p :     0.038086
      px      :     0.010546
      py      :     0.015768
      dz2     :     0.000051  d :     0.001696
      dxz     :     0.000280
      dyz     :     0.000436
      dx2y2   :     0.000665
      dxy     :     0.000264

  3 H s       :     0.860383  s :     0.860383
      pz      :     0.011772  p :     0.038087
      px      :     0.010547
      py      :     0.015768
      dz2     :     0.000051  d :     0.001696
      dxz     :     0.000280
      dyz     :     0.000436
      dx2y2   :     0.000665
      dxy     :     0.000264

  4 H s       :     0.860380  s :     0.860380
      pz      :     0.011772  p :     0.038086
      px      :     0.010547
      py      :     0.015767
      dz2     :     0.000051  d :     0.001696
      dxz     :     0.000280
      dyz     :     0.000436
      dx2y2   :     0.000665
      dxy     :     0.000264

  5 H s       :     0.860380  s :     0.860380
      pz      :     0.011772  p :     0.038086
      px      :     0.010547
      py      :     0.015767
      dz2     :     0.000051  d :     0.001696
      dxz     :     0.000280
      dyz     :     0.000436
      dx2y2   :     0.000665
      dxy     :     0.000264



                     *******************************
                     * LOEWDIN POPULATION ANALYSIS *
                     *******************************

----------------------
LOEWDIN ATOMIC CHARGES
----------------------
   0 C :    0.004903
   1 C :    0.004903
   2 H :   -0.002452
   3 H :   -0.002452
   4 H :   -0.002452
   5 H :   -0.002452

-------------------------------
LOEWDIN REDUCED ORBITAL CHARGES
-------------------------------
  0 C s       :     2.771937  s :     2.771937
      pz      :     0.857231  p :     2.927908
      px      :     1.060642
      py      :     1.010036
      dz2     :     0.016716  d :     0.267571
      dxz     :     0.038351
      dyz     :     0.000000
      dx2y2   :     0.061683
      dxy     :     0.150821
      f0      :     0.000905  f :     0.027680
      f+1     :     0.003402
      f-1     :     0.002222
      f+2     :     0.004895
      f-2     :     0.000000
      f+3     :     0.006790
      f-3     :     0.009465

  1 C s       :     2.771938  s :     2.771938
      pz      :     0.857230  p :     2.927908
      px      :     1.060642
      py      :     1.010036
      dz2     :     0.016716  d :     0.267571
      dxz     :     0.038351
      dyz     :     0.000000
      dx2y2   :     0.061683
      dxy     :     0.150821
      f0      :     0.000905  f :     0.027680
      f+1     :     0.003402
      f-1     :     0.002222
      f+2     :     0.004895
      f-2     :     0.000000
      f+3     :     0.006790
      f-3     :     0.009465

  2 H s       :     0.821491  s :     0.821491
      pz      :     0.041001  p :     0.152469
      px      :     0.044804
      py      :     0.066663
      dz2     :     0.002561  d :     0.028491
      dxz     :     0.002650
      dyz     :     0.005658
      dx2y2   :     0.009338
      dxy     :     0.008284

  3 H s       :     0.821491  s :     0.821491
      pz      :     0.041001  p :     0.152469
      px      :     0.044804
      py      :     0.066663
      dz2     :     0.002561  d :     0.028491
      dxz     :     0.002650
      dyz     :     0.005658
      dx2y2   :     0.009338
      dxy     :     0.008284

  4 H s       :     0.821491  s :     0.821491
      pz      :     0.041001  p :     0.152469
      px      :     0.044804
      py      :     0.066663
      dz2     :     0.002561  d :     0.028491
      dxz     :     0.002650
      dyz     :     0.005658
      dx2y2   :     0.009338
      dxy     :     0.008284

  5 H s       :     0.821491  s :     0.821491
      pz      :     0.041001  p :     0.152469
      px      :     0.044804
      py      :     0.066663
      dz2     :     0.002561  d :     0.028491
      dxz     :     0.002650
      dyz     :     0.005658
      dx2y2   :     0.009338
      dxy     :     0.008284



                      *****************************
                      * MAYER POPULATION ANALYSIS *
                      *****************************

  NA   - Mulliken gross atomic population
  ZA   - Total nuclear charge
  QA   - Mulliken gross atomic charge
  VA   - Mayer's total valence
  BVA  - Mayer's bonded valence
  FA   - Mayer's free valence

  ATOM       NA         ZA         QA         VA         BVA        FA
  0 C      6.1997     6.0000    -0.1997     3.9442     3.9442     0.0000
  1 C      6.1997     6.0000    -0.1997     3.9442     3.9442    -0.0000
  2 H      0.9002     1.0000     0.0998     1.0031     1.0031    -0.0000
  3 H      0.9002     1.0000     0.0998     1.0031     1.0031     0.0000
  4 H      0.9002     1.0000     0.0998     1.0031     1.0031    -0.0000
  5 H      0.9002     1.0000     0.0998     1.0031     1.0031    -0.0000

  Mayer bond orders larger than 0.100000
B(  0-C ,  1-C ) :   1.9507 B(  0-C ,  2-H ) :   0.9813 B(  0-C ,  3-H ) :   0.9813 
B(  1-C ,  4-H ) :   0.9813 B(  1-C ,  5-H ) :   0.9813 

-------
TIMINGS
-------

Total SCF time: 0 days 0 hours 0 min 7 sec 

Total time                  ....       7.246 sec
Sum of individual times     ....       7.213 sec  ( 99.5%)

SCF preparation             ....       0.055 sec  (  0.8%)
Fock matrix formation       ....       6.547 sec  ( 90.4%)
  Startup                   ....       0.073 sec  (  1.1% of F)
  Split-RI-J                ....       0.301 sec  (  4.6% of F)
  Chain of spheres X        ....       4.480 sec  ( 68.4% of F)
  XC integration            ....       1.659 sec  ( 25.3% of F)
    Basis function eval.    ....       0.433 sec  ( 26.1% of XC)
    Density eval.           ....       0.303 sec  ( 18.3% of XC)
    XC-Functional eval.     ....       0.061 sec  (  3.7% of XC)
    XC-Potential eval.      ....       0.767 sec  ( 46.2% of XC)
Diagonalization             ....       0.000 sec  (  0.0%)
Density matrix formation    ....       0.187 sec  (  2.6%)
Total Energy calculation    ....       0.070 sec  (  1.0%)
Population analysis         ....       0.040 sec  (  0.6%)
Orbital Transformation      ....       0.024 sec  (  0.3%)
Orbital Orthonormalization  ....       0.000 sec  (  0.0%)
DIIS solution               ....       0.189 sec  (  2.6%)
SOSCF solution              ....       0.101 sec  (  1.4%)
Finished LeanSCF after   7.3 sec

Maximum memory used throughout the entire LEANSCF-calculation: 10.5 MB

-------------------------   --------------------
FINAL SINGLE POINT ENERGY       -78.513599508612
-------------------------   --------------------

------------------------------------------------------------------------------
                         ORCA SCF GRADIENT CALCULATION
------------------------------------------------------------------------------

Nuc. rep. gradient        (SHARK) ... done (  0.0 sec)
HCore & Overlap gradient  (SHARK) ... done (  0.0 sec)
Split-RIJ-J gradient      (SHARK) ... done (  0.1 sec)
COSX-gradient                     ... done (  4.7 sec)
XC gradient                       ... done (  0.8 sec)

------------------
CARTESIAN GRADIENT
------------------

   1   C   :    0.011100404    0.000000006    0.000000002
   2   C   :   -0.011100408    0.000000003   -0.000000002
   3   H   :   -0.000817179    0.001357250    0.000000001
   4   H   :   -0.000817166   -0.001357249   -0.000000001
   5   H   :    0.000817170    0.001357249    0.000000001
   6   H   :    0.000817179   -0.001357258    0.000000000

Difference to translation invariance:
           :   -0.0000000000   -0.0000000000   -0.0000000000

Difference to rotation invariance:
           :   -0.0000000045   -0.0000000017   -0.0000000059

Norm of the Cartesian gradient     ...    0.0160149195
RMS gradient                       ...    0.0037747527
MAX gradient                       ...    0.0111004080

-------
TIMINGS
-------

Total SCF gradient time     ....        5.650 sec

One electron gradient       ....       0.024 sec  (  0.4%)
RI-J Coulomb gradient       ....       0.147 sec  (  2.6%)
COSX gradient               ....       4.655 sec  ( 82.4%)
XC gradient                 ....       0.824 sec  ( 14.6%)

Maximum memory used throughout the entire SCFGRAD-calculation: 13.6 MB
------------------------------------------------------------------------------
                         ORCA GEOMETRY RELAXATION STEP
------------------------------------------------------------------------------

Reading the OPT-File                    .... done
Getting information on internals        .... done
Copying old internal coords+grads       .... done
Making the new internal coordinates     .... (2022 redundants) done
Validating the new internal coordinates .... (2022 redundants) done
Calculating the B-matrix                .... done
Calculating the G,G- and P matrices     .... done
Transforming gradient to internals      .... done
Projecting the internal gradient        .... done
Number of atoms                         ....   6
Number of internal coordinates          ....  15
Current Energy                          ....   -78.513599509 Eh
Current gradient norm                   ....     0.016014920 Eh/bohr
Maximum allowed component of the step   ....  0.300
Current trust radius                    ....  0.300
Evaluating the initial hessian          ....  (Almloef) done
Projecting the Hessian                  .... done
Forming the augmented Hessian           .... done
Diagonalizing the augmented Hessian     .... done
Last element of RFO vector              ....  0.999889207
Lowest eigenvalues of augmented Hessian:
 -0.000142540  0.043172806  0.043172806  0.043172806  0.318678080
Length of the computed step             ....  0.014886995
The final length of the internal step   ....  0.014886995
Converting the step to Cartesian space:
 Initial RMS(Int)=    0.0038438055
Transforming coordinates:
 Iter   0:  RMS(Cart)=    0.0032468880 RMS(Int)=    2.2942981020
done
Storing new coordinates                 .... done

                                .--------------------.
          ----------------------|Geometry convergence|-------------------------
          Item                value                   Tolerance       Converged
          ---------------------------------------------------------------------
          RMS gradient        0.0025774174            0.0000100000      NO
          MAX gradient        0.0094660590            0.0001000000      NO
          RMS step            0.0038438055            0.0000100000      NO
          MAX step            0.0122044880            0.0001000000      NO
          ........................................................
          Max(Bonds)      0.0065      Max(Angles)    0.00
          Max(Dihed)        0.00      Max(Improp)    0.00
          ---------------------------------------------------------------------

The optimization has not yet converged - more geometry cycles are needed


    ---------------------------------------------------------------------------
                         Redundant Internal Coordinates
                            (Angstroem and degrees)

        Definition                    Value    dE/dq     Step     New-Value
    ----------------------------------------------------------------------------
     1. B(C   1,C   0)                1.3312  0.009466 -0.0065    1.3247   
     2. B(H   2,C   0)                1.0815 -0.001584  0.0023    1.0837   
     3. B(H   3,C   0)                1.0815 -0.001584  0.0023    1.0837   
     4. B(H   4,C   1)                1.0815 -0.001584  0.0023    1.0837   
     5. B(H   5,C   1)                1.0815 -0.001584  0.0023    1.0837   
     6. A(H   2,C   0,H   3)          116.87 -0.000019    0.00    116.88   
     7. A(C   1,C   0,H   2)          121.56  0.000010   -0.00    121.56   
     8. A(C   1,C   0,H   3)          121.56  0.000010   -0.00    121.56   
     9. A(H   4,C   1,H   5)          116.87 -0.000019    0.00    116.88   
    10. A(C   0,C   1,H   5)          121.56  0.000010   -0.00    121.56   
    11. A(C   0,C   1,H   4)          121.56  0.000010   -0.00    121.56   
    12. D(H   4,C   1,C   0,H   3)    180.00 -0.000000    0.00    180.00   
    13. D(H   5,C   1,C   0,H   2)    180.00 -0.000000    0.00    180.00   
    14. D(H   5,C   1,C   0,H   3)      0.00 -0.000000    0.00      0.00   
    15. D(H   4,C   1,C   0,H   2)      0.00  0.000000   -0.00     -0.00   
    ----------------------------------------------------------------------------

Geometry step timings:
Preparation and reading OPT file:      0.000 s ( 0.000 %)
Internal coordinates            :      0.000 s ( 0.000 %)
B/P matrices and projection     :      0.000 s ( 0.000 %)
Hessian update/contruction      :      0.002 s (100.000 %)
Making the step                 :      0.000 s ( 0.000 %)
Converting the step to Cartesian:      0.000 s ( 0.000 %)
Storing new data                :      0.000 s ( 0.000 %)
Checking convergence            :      0.000 s ( 0.000 %)
Final printing                  :      0.000 s ( 0.000 %)
Total time                      :      0.002 s

Time for energy+gradient        :     13.563 s
Time for complete geometry iter :     13.619 s

         *************************************************************
         *                GEOMETRY OPTIMIZATION CYCLE   2            *
         *************************************************************
---------------------------------
CARTESIAN COORDINATES (ANGSTROEM)
---------------------------------
  C      0.662365   -0.000000   -0.000000
  C     -0.662365   -0.000000    0.000000
  H      1.229594   -0.923432   -0.000000
  H      1.229594    0.923432    0.000000
  H     -1.229594   -0.923432    0.000000
  H     -1.229594    0.923432   -0.000000

----------------------------
CARTESIAN COORDINATES (A.U.)
----------------------------
  NO LB      ZA    FRAG     MASS         X           Y           Z
   0 C     6.0000    0    12.011    1.251688   -0.000000   -0.000000
   1 C     6.0000    0    12.011   -1.251688   -0.000000    0.000000
   2 H     1.0000    0     1.008    2.323596   -1.745034   -0.000000
   3 H     1.0000    0     1.008    2.323596    1.745034    0.000000
   4 H     1.0000    0     1.008   -2.323596   -1.745034    0.000000
   5 H     1.0000    0     1.008   -2.323596    1.745034   -0.000000

--------------------------------
INTERNAL COORDINATES (ANGSTROEM)
--------------------------------
 C      0   0   0     0.000000000000     0.00000000     0.00000000
 C      1   0   0     1.324729363130     0.00000000     0.00000000
 H      1   2   0     1.083732636092   121.56082990     0.00000000
 H      1   2   3     1.083732625198   121.56082706   180.00000121
 H      2   1   3     1.083732627304   121.56082825     0.00000000
 H      2   1   3     1.083732646112   121.56082864   180.00000000

---------------------------
INTERNAL COORDINATES (A.U.)
---------------------------
 C      0   0   0     0.000000000000     0.00000000     0.00000000
 C      1   0   0     2.503375697880     0.00000000     0.00000000
 H      1   2   0     2.047957884607   121.56082990     0.00000000
 H      1   2   3     2.047957864019   121.56082706   180.00000121
 H      2   1   3     2.047957867999   121.56082825     0.00000000
 H      2   1   3     2.047957903542   121.56082864   180.00000000

------------------------------------------------------------------------------
                   ___                                                        
                  /   \      - P O W E R E D   B Y -                         
                 /     \                                                     
                 |  |  |   _    _      __       _____    __    __             
                 |  |  |  | |  | |    /  \     |  _  \  |  |  /  |          
                  \  \/   | |  | |   /    \    | | | |  |  | /  /          
                 / \  \   | |__| |  /  /\  \   | |_| |  |  |/  /          
                |  |  |   |  __  | /  /__\  \  |    /   |      \           
                |  |  |   | |  | | |   __   |  |    \   |  |\   \          
                \     /   | |  | | |  |  |  |  | |\  \  |  | \   \       
                 \___/    |_|  |_| |__|  |__|  |_| \__\ |__|  \__/        
                                                                              
                      - O R C A' S   B I G   F R I E N D -                    
                                      &                                       
                       - I N T E G R A L  F E E D E R -                       
                                                                              
 v1 FN, 2020, v2 2021, v3 2022-2024                                           
------------------------------------------------------------------------------


----------------------
SHARK INTEGRAL PACKAGE
----------------------

Number of atoms                             ...      6
Number of basis functions                   ...    118
Number of shells                            ...     46
Maximum angular momentum                    ...      3
Integral batch strategy                     ... SHARK/LIBINT Hybrid
RI-J (if used) integral strategy            ... SPLIT-RIJ (Revised 2003 algorithm where possible)
Printlevel                                  ...      1
Contraction scheme used                     ... SEGMENTED contraction
Prescreening option                         ... SCHWARTZ
   Thresh                                   ... 1.000e-12
   Tcut                                     ... 1.000e-14
   Tpresel                                  ... 1.000e-14 
Coulomb Range Separation                    ... NOT USED
Exchange Range Separation                   ... NOT USED
Multipole approximations                    ... NOT USED
Finite Nucleus Model                        ... NOT USED
CABS basis                                  ... NOT available
Auxiliary Coulomb fitting basis             ... AVAILABLE
   # of basis functions in Aux-J            ...    142
   # of shells in Aux-J                     ...     50
   Maximum angular momentum in Aux-J        ...      4
Auxiliary J/K fitting basis                 ... NOT available
Auxiliary Correlation fitting basis         ... NOT available
Auxiliary 'external' fitting basis          ... NOT available

Checking pre-screening integrals            ... done (  0.0 sec) Dimension = 46
Check shell pair data                       ... done (  0.0 sec)
Shell pair information
Shell pair cut-off parameter TPreSel        ...   1.0e-14
Total number of shell pairs                 ...      1081
Shell pairs after pre-screening             ...      1080
Total number of primitive shell pairs       ...      2684
Primitive shell pairs kept                  ...      2469
          la=0 lb=0:    252 shell pairs
          la=1 lb=0:    308 shell pairs
          la=1 lb=1:    105 shell pairs
          la=2 lb=0:    176 shell pairs
          la=2 lb=1:    112 shell pairs
          la=2 lb=2:     36 shell pairs
          la=3 lb=0:     44 shell pairs
          la=3 lb=1:     28 shell pairs
          la=3 lb=2:     16 shell pairs
          la=3 lb=3:      3 shell pairs

Calculating one electron integrals          ... done (  0.0 sec)
Calculating RI/J V-Matrix + Cholesky decomp.... done (  0.0 sec)
Calculating Nuclear repulsion               ... done (  0.0 sec) ENN=     33.479673548730 Eh

Diagonalization of the overlap matrix:
Smallest eigenvalue                        ... 1.814e-04
Time for diagonalization                   ...    0.001 sec
Threshold for overlap eigenvalues          ... 1.000e-07
Number of eigenvalues below threshold      ... 0
Time for construction of square roots      ...    0.001 sec
Total time needed                          ...    0.006 sec

-------------------
DFT GRID GENERATION
-------------------

General Integration Accuracy     IntAcc      ... 4.388
Radial Grid Type                 RadialGrid  ... OptM3 with GC (2021)
Angular Grid (max. ang.)         AngularGrid ... 4 (Lebedev-302)
Angular grid pruning method      GridPruning ... 4 (adaptive)
Weight generation scheme         WeightScheme... mBecke (2022)
Basis function cutoff            BFCut       ... 1.0000e-12
Integration weight cutoff        WCut        ... 1.0000e-14
Partially contracted basis set               ... off
Rotationally invariant grid construction     ... off
Angular grids for H and He will be reduced by one unit

Total number of grid points                  ...    25284
Total number of batches                      ...      396
Average number of points per batch           ...       63
Average number of grid points per atom       ...     4214

--------------------
COSX GRID GENERATION
--------------------

GRIDX 1
-------
General Integration Accuracy     IntAcc      ... 3.816
Radial Grid Type                 RadialGrid  ... OptM3 with GC (2021)
Angular Grid (max. ang.)         AngularGrid ... 1 (Lebedev-50)
Angular grid pruning method      GridPruning ... 4 (adaptive)
Weight generation scheme         WeightScheme... mBecke (2022)
Basis function cutoff            BFCut       ... 1.0000e-12
Integration weight cutoff        WCut        ... 1.0000e-14
Partially contracted basis set               ... on
Rotationally invariant grid construction     ... off
Angular grids for H and He will be reduced by one unit

Total number of grid points                  ...     3280
Total number of batches                      ...       30
Average number of points per batch           ...      109
Average number of grid points per atom       ...      547
UseSFitting                                  ... on

GRIDX 2
-------
General Integration Accuracy     IntAcc      ... 4.020
Radial Grid Type                 RadialGrid  ... OptM3 with GC (2021)
Angular Grid (max. ang.)         AngularGrid ... 2 (Lebedev-110)
Angular grid pruning method      GridPruning ... 4 (adaptive)
Weight generation scheme         WeightScheme... mBecke (2022)
Basis function cutoff            BFCut       ... 1.0000e-12
Integration weight cutoff        WCut        ... 1.0000e-14
Partially contracted basis set               ... on
Rotationally invariant grid construction     ... off
Angular grids for H and He will be reduced by one unit

Total number of grid points                  ...     6900
Total number of batches                      ...       56
Average number of points per batch           ...      123
Average number of grid points per atom       ...     1150
UseSFitting                                  ... on

GRIDX 3
-------
General Integration Accuracy     IntAcc      ... 4.338
Radial Grid Type                 RadialGrid  ... OptM3 with GC (2021)
Angular Grid (max. ang.)         AngularGrid ... 3 (Lebedev-194)
Angular grid pruning method      GridPruning ... 4 (adaptive)
Weight generation scheme         WeightScheme... mBecke (2022)
Basis function cutoff            BFCut       ... 1.0000e-12
Integration weight cutoff        WCut        ... 1.0000e-14
Partially contracted basis set               ... on
Rotationally invariant grid construction     ... off
Angular grids for H and He will be reduced by one unit

Total number of grid points                  ...    15208
Total number of batches                      ...      122
Average number of points per batch           ...      124
Average number of grid points per atom       ...     2535
UseSFitting                                  ... on
Initializing property integral containers    ... done (  0.0 sec)

SHARK setup successfully completed in   0.3 seconds

Maximum memory used throughout the entire STARTUP-calculation: 13.9 MB
Occupation numbers will be reassigned to an Aufbau configuration
             **** ENERGY FILE WAS UPDATED (C2H4_Freq-PBE0.en.tmp) ****
Finished Guess after   0.1 sec
Maximum memory used throughout the entire GUESS-calculation: 9.5 MB
----------------------------------------D-I-I-S--------------------------------------------
Iteration    Energy (Eh)           Delta-E    RMSDP     MaxDP     DIISErr   Damp  Time(sec)
-------------------------------------------------------------------------------------------
               ***  Starting incremental Fock matrix formation  ***
                              *** Initializing SOSCF ***
---------------------------------------S-O-S-C-F--------------------------------------
Iteration    Energy (Eh)           Delta-E    RMSDP     MaxDP     MaxGrad    Time(sec)
--------------------------------------------------------------------------------------
    1    -78.5136764776988088     0.00e+00  8.65e-05  1.49e-03  2.32e-04     0.7
               *** Restarting incremental Fock matrix formation ***
    2    -78.5136932065409070    -1.67e-05  2.84e-05  4.68e-04  3.40e-04     0.7
    3    -78.5136942513150018    -1.04e-06  8.21e-06  1.28e-04  2.00e-04     0.7
    4    -78.5136945777122435    -3.26e-07  3.33e-06  4.14e-05  5.39e-05     0.7
    5    -78.5136945960740178    -1.84e-08  2.87e-07  5.80e-06  3.84e-06     0.7
    6    -78.5136945965314226    -4.57e-10  3.53e-08  5.99e-07  7.92e-07     0.6
                 **** Energy Check signals convergence ****

               *****************************************************
               *                     SUCCESS                       *
               *           SCF CONVERGED AFTER   6 CYCLES          *
               *****************************************************

Recomputing exchange energy using gridx3       ... done (    0.913 sec)
Old exchange energy                            :     -2.935807435 Eh
New exchange energy                            :     -2.935795975 Eh
Exchange energy change after final integration :      0.000011460 Eh
Total energy after final integration           :    -78.513683137 Eh
             **** ENERGY FILE WAS UPDATED (C2H4_Freq-PBE0.en.tmp) ****

----------------
TOTAL SCF ENERGY
----------------

Total Energy       :        -78.51368313686717 Eh           -2136.46593 eV

Components:
Nuclear Repulsion  :         33.47967354873030 Eh             911.02823 eV
Electronic Energy  :       -111.99336814526173 Eh           -3047.49448 eV
One Electron Energy:       -170.55200269053765 Eh           -4640.95593 eV
Two Electron Energy:         58.55863454527592 Eh            1593.46146 eV

Virial components:
Potential Energy   :       -156.60711849023687 Eh           -4261.49634 eV
Kinetic Energy     :         78.09343535336971 Eh            2125.03041 eV
Virial Ratio       :          2.00538134584035

DFT components:
N(Alpha)           :        8.000014344906 electrons
N(Beta)            :        8.000014344906 electrons
N(Total)           :       16.000028689812 electrons
E(X)               :       -8.767654785650 Eh       
E(C)               :       -0.496158834051 Eh       
E(XC)              :       -9.263813619701 Eh       

---------------
SCF CONVERGENCE
---------------

  Last Energy change         ...    4.5740e-10  Tolerance :   1.0000e-09
  Last MAX-Density change    ...    5.9902e-07  Tolerance :   1.0000e-08
  Last RMS-Density change    ...    3.5331e-08  Tolerance :   1.0000e-09
  Last DIIS Error            ...    1.8963e-03  Tolerance :   1.0000e-08
  Last Orbital Gradient      ...    7.9176e-07  Tolerance :   2.0000e-06
  Last Orbital Rotation      ...    6.3594e-07  Tolerance :   2.0000e-06


Total SCF time: 0 days 0 hours 0 min 5 sec 
Finished LeanSCF after   5.1 sec

Maximum memory used throughout the entire LEANSCF-calculation: 10.7 MB

-------------------------   --------------------
FINAL SINGLE POINT ENERGY       -78.513683136867
-------------------------   --------------------

------------------------------------------------------------------------------
                         ORCA SCF GRADIENT CALCULATION
------------------------------------------------------------------------------

Nuc. rep. gradient        (SHARK) ... done (  0.0 sec)
HCore & Overlap gradient  (SHARK) ... done (  0.0 sec)
Split-RIJ-J gradient      (SHARK) ... done (  0.1 sec)
COSX-gradient                     ... done (  4.6 sec)
XC gradient                       ... done (  0.8 sec)

------------------
CARTESIAN GRADIENT
------------------

   1   C   :    0.002316944   -0.000000023    0.000000002
   2   C   :   -0.002316933   -0.000000010    0.000000000
   3   H   :   -0.000244321   -0.000025703    0.000000001
   4   H   :   -0.000244333    0.000025720   -0.000000002
   5   H   :    0.000244326   -0.000025718    0.000000001
   6   H   :    0.000244318    0.000025734   -0.000000003

Difference to translation invariance:
           :   -0.0000000000   -0.0000000000   -0.0000000000

Difference to rotation invariance:
           :   -0.0000000133   -0.0000000043    0.0000000204

Norm of the Cartesian gradient     ...    0.0033132808
RMS gradient                       ...    0.0007809478
MAX gradient                       ...    0.0023169435

-------
TIMINGS
-------

Total SCF gradient time     ....        5.597 sec

One electron gradient       ....       0.023 sec  (  0.4%)
RI-J Coulomb gradient       ....       0.142 sec  (  2.5%)
COSX gradient               ....       4.610 sec  ( 82.4%)
XC gradient                 ....       0.822 sec  ( 14.7%)

Maximum memory used throughout the entire SCFGRAD-calculation: 13.6 MB
------------------------------------------------------------------------------
                         ORCA GEOMETRY RELAXATION STEP
------------------------------------------------------------------------------

Reading the OPT-File                    .... done
Getting information on internals        .... done
Copying old internal coords+grads       .... done
Making the new internal coordinates     .... (2022 redundants) done
Validating the new internal coordinates .... (2022 redundants) done
Calculating the B-matrix                .... done
Calculating the G,G- and P matrices     .... done
Transforming gradient to internals      .... done
Projecting the internal gradient        .... done
Number of atoms                         ....   6
Number of internal coordinates          ....  15
Current Energy                          ....   -78.513683137 Eh
Current gradient norm                   ....     0.003313281 Eh/bohr
Maximum allowed component of the step   ....  0.300
Current trust radius                    ....  0.300
Updating the Hessian (BFGS)             .... done
Forming the augmented Hessian           .... done
Diagonalizing the augmented Hessian     .... done
Last element of RFO vector              ....  0.999993266
Lowest eigenvalues of augmented Hessian:
 -0.000006668  0.043172806  0.043172806  0.043172806  0.313928417
Length of the computed step             ....  0.003670011
The final length of the internal step   ....  0.003670011
Converting the step to Cartesian space:
 Initial RMS(Int)=    0.0009475927
Transforming coordinates:
 Iter   0:  RMS(Cart)=    0.0005325582 RMS(Int)=    1.6223117383
done
Storing new coordinates                 .... done
The predicted energy change is          ....    -0.000003334
Previously predicted energy change      ....    -0.000071286
Actually observed energy change         ....    -0.000083628
Ratio of predicted to observed change   ....     1.173139888
New trust radius                        ....     0.450000000

                                .--------------------.
          ----------------------|Geometry convergence|-------------------------
          Item                value                   Tolerance       Converged
          ---------------------------------------------------------------------
          Energy change      -0.0000836283            0.0000010000      NO
          RMS gradient        0.0004941177            0.0000100000      NO
          MAX gradient        0.0018282891            0.0001000000      NO
          RMS step            0.0009475927            0.0000100000      NO
          MAX step            0.0029885005            0.0001000000      NO
          ........................................................
          Max(Bonds)      0.0016      Max(Angles)    0.07
          Max(Dihed)        0.00      Max(Improp)    0.00
          ---------------------------------------------------------------------

The optimization has not yet converged - more geometry cycles are needed


    ---------------------------------------------------------------------------
                         Redundant Internal Coordinates
                            (Angstroem and degrees)

        Definition                    Value    dE/dq     Step     New-Value
    ----------------------------------------------------------------------------
     1. B(C   1,C   0)                1.3247  0.001828 -0.0016    1.3231   
     2. B(H   2,C   0)                1.0837 -0.000106  0.0002    1.0839   
     3. B(H   3,C   0)                1.0837 -0.000106  0.0002    1.0839   
     4. B(H   4,C   1)                1.0837 -0.000106  0.0002    1.0839   
     5. B(H   5,C   1)                1.0837 -0.000106  0.0002    1.0839   
     6. A(H   2,C   0,H   3)          116.88  0.000303   -0.07    116.81   
     7. A(C   1,C   0,H   2)          121.56 -0.000151    0.03    121.59   
     8. A(C   1,C   0,H   3)          121.56 -0.000151    0.03    121.59   
     9. A(H   4,C   1,H   5)          116.88  0.000303   -0.07    116.81   
    10. A(C   0,C   1,H   5)          121.56 -0.000151    0.03    121.59   
    11. A(C   0,C   1,H   4)          121.56 -0.000151    0.03    121.59   
    12. D(H   4,C   1,C   0,H   3)   -180.00 -0.000000    0.00   -180.00   
    13. D(H   5,C   1,C   0,H   2)   -180.00  0.000000   -0.00   -180.00   
    14. D(H   5,C   1,C   0,H   3)      0.00 -0.000000    0.00      0.00   
    15. D(H   4,C   1,C   0,H   2)     -0.00  0.000000   -0.00     -0.00   
    ----------------------------------------------------------------------------

Geometry step timings:
Preparation and reading OPT file:      0.005 s (71.429 %)
Internal coordinates            :      0.000 s ( 0.000 %)
B/P matrices and projection     :      0.000 s ( 0.000 %)
Hessian update/contruction      :      0.001 s (14.286 %)
Making the step                 :      0.000 s ( 0.000 %)
Converting the step to Cartesian:      0.000 s ( 0.000 %)
Storing new data                :      0.001 s (14.286 %)
Checking convergence            :      0.000 s ( 0.000 %)
Final printing                  :      0.000 s ( 0.000 %)
Total time                      :      0.007 s

Time for energy+gradient        :     11.168 s
Time for complete geometry iter :     11.219 s

         *************************************************************
         *                GEOMETRY OPTIMIZATION CYCLE   3            *
         *************************************************************
---------------------------------
CARTESIAN COORDINATES (ANGSTROEM)
---------------------------------
  C      0.661574    0.000000   -0.000000
  C     -0.661574    0.000000   -0.000000
  H      1.229440   -0.923287    0.000000
  H      1.229440    0.923287    0.000000
  H     -1.229440   -0.923287    0.000000
  H     -1.229440    0.923287    0.000000

----------------------------
CARTESIAN COORDINATES (A.U.)
----------------------------
  NO LB      ZA    FRAG     MASS         X           Y           Z
   0 C     6.0000    0    12.011    1.250194    0.000000   -0.000000
   1 C     6.0000    0    12.011   -1.250194    0.000000   -0.000000
   2 H     1.0000    0     1.008    2.323305   -1.744759    0.000000
   3 H     1.0000    0     1.008    2.323305    1.744759    0.000000
   4 H     1.0000    0     1.008   -2.323305   -1.744759    0.000000
   5 H     1.0000    0     1.008   -2.323305    1.744759    0.000000

--------------------------------
INTERNAL COORDINATES (ANGSTROEM)
--------------------------------
 C      0   0   0     0.000000000000     0.00000000     0.00000000
 C      1   0   0     1.323147916799     0.00000000     0.00000000
 H      1   2   0     1.083942227083   121.59353398     0.00000000
 H      1   2   3     1.083942204032   121.59353743   180.00000362
 H      2   1   3     1.083942202620   121.59353489     0.00000000
 H      2   1   3     1.083942189870   121.59353732   179.99999852

---------------------------
INTERNAL COORDINATES (A.U.)
---------------------------
 C      0   0   0     0.000000000000     0.00000000     0.00000000
 C      1   0   0     2.500387197419     0.00000000     0.00000000
 H      1   2   0     2.048353954180   121.59353398     0.00000000
 H      1   2   3     2.048353910619   121.59353743   180.00000362
 H      2   1   3     2.048353907951   121.59353489     0.00000000
 H      2   1   3     2.048353883858   121.59353732   179.99999852

------------------------------------------------------------------------------
                   ___                                                        
                  /   \      - P O W E R E D   B Y -                         
                 /     \                                                     
                 |  |  |   _    _      __       _____    __    __             
                 |  |  |  | |  | |    /  \     |  _  \  |  |  /  |          
[...]
	<< Calculating gradient on displaced geometry  10 (of  36) >>
	<< Calculating gradient on displaced geometry  11 (of  36) >>
	<< Calculating gradient on displaced geometry  12 (of  36) >>
	<< Calculating gradient on displaced geometry  13 (of  36) >>
	<< Calculating gradient on displaced geometry  14 (of  36) >>
	<< Calculating gradient on displaced geometry  15 (of  36) >>
	<< Calculating gradient on displaced geometry  16 (of  36) >>
	<< Calculating gradient on displaced geometry  17 (of  36) >>
	<< Calculating gradient on displaced geometry  18 (of  36) >>
	<< Calculating gradient on displaced geometry  19 (of  36) >>
	<< Calculating gradient on displaced geometry  20 (of  36) >>
	<< Calculating gradient on displaced geometry  21 (of  36) >>
	<< Calculating gradient on displaced geometry  22 (of  36) >>
	<< Calculating gradient on displaced geometry  23 (of  36) >>
	<< Calculating gradient on displaced geometry  24 (of  36) >>
	<< Calculating gradient on displaced geometry  25 (of  36) >>
	<< Calculating gradient on displaced geometry  26 (of  36) >>
	<< Calculating gradient on displaced geometry  27 (of  36) >>
	<< Calculating gradient on displaced geometry  28 (of  36) >>
	<< Calculating gradient on displaced geometry  29 (of  36) >>
	<< Calculating gradient on displaced geometry  30 (of  36) >>
	<< Calculating gradient on displaced geometry  31 (of  36) >>
	<< Calculating gradient on displaced geometry  32 (of  36) >>
	<< Calculating gradient on displaced geometry  33 (of  36) >>
	<< Calculating gradient on displaced geometry  34 (of  36) >>
	<< Calculating gradient on displaced geometry  35 (of  36) >>
	<< Calculating gradient on displaced geometry  36 (of  36) >>

-----------------------
VIBRATIONAL FREQUENCIES
-----------------------

Scaling factor for frequencies =  1.000000000  (already applied!)

     0:       0.00 cm**-1
     1:       0.00 cm**-1
     2:       0.00 cm**-1
     3:       0.00 cm**-1
     4:       0.00 cm**-1
     5:       0.00 cm**-1
     6:     828.09 cm**-1
     7:     979.30 cm**-1
     8:     986.71 cm**-1
     9:    1068.64 cm**-1
    10:    1239.56 cm**-1
    11:    1380.58 cm**-1
    12:    1467.73 cm**-1
    13:    1703.52 cm**-1
    14:    3145.60 cm**-1
    15:    3160.97 cm**-1
    16:    3222.61 cm**-1
    17:    3249.24 cm**-1


------------
NORMAL MODES
------------

These modes are the Cartesian displacements weighted by the diagonal matrix
M(i,i)=1/sqrt(m[i]) where m[i] is the mass of the displaced atom
Thus, these vectors are normalized but *not* orthogonal

                  0          1          2          3          4          5    
      0       0.000000   0.000000   0.000000   0.000000   0.000000   0.000000
      1       0.000000   0.000000   0.000000   0.000000   0.000000   0.000000
      2       0.000000   0.000000   0.000000   0.000000   0.000000   0.000000
      3       0.000000   0.000000   0.000000   0.000000   0.000000   0.000000
      4       0.000000   0.000000   0.000000   0.000000   0.000000   0.000000
      5       0.000000   0.000000   0.000000   0.000000   0.000000   0.000000
      6       0.000000   0.000000   0.000000   0.000000   0.000000   0.000000
      7       0.000000   0.000000   0.000000   0.000000   0.000000   0.000000
      8       0.000000   0.000000   0.000000   0.000000   0.000000   0.000000
      9       0.000000   0.000000   0.000000   0.000000   0.000000   0.000000
     10       0.000000   0.000000   0.000000   0.000000   0.000000   0.000000
     11       0.000000   0.000000   0.000000   0.000000   0.000000   0.000000
     12       0.000000   0.000000   0.000000   0.000000   0.000000   0.000000
     13       0.000000   0.000000   0.000000   0.000000   0.000000   0.000000
     14       0.000000   0.000000   0.000000   0.000000   0.000000   0.000000
     15       0.000000   0.000000   0.000000   0.000000   0.000000   0.000000
     16       0.000000   0.000000   0.000000   0.000000   0.000000   0.000000
     17       0.000000   0.000000   0.000000   0.000000   0.000000   0.000000
                  6          7          8          9         10         11    
      0      -0.000000   0.000000  -0.000001  -0.000001  -0.000002   0.088700
      1      -0.039663   0.000001   0.000003   0.000001   0.153596  -0.000001
      2      -0.000004   0.083816  -0.152085  -0.000005   0.000001  -0.000003
      3      -0.000000   0.000000   0.000000   0.000001   0.000002  -0.088706
      4      -0.039653  -0.000002  -0.000001  -0.000004  -0.153600   0.000002
      5       0.000002   0.082860   0.152769   0.000003  -0.000003   0.000001
      6       0.439777   0.000005  -0.000022   0.000009  -0.466979   0.453237
      7       0.236282   0.000002  -0.000009   0.000007  -0.141780   0.201654
      8      -0.000006  -0.498038   0.486182   0.500019  -0.000010   0.000013
      9      -0.439769   0.000003   0.000014  -0.000012   0.466998   0.453234
     10       0.236278   0.000000  -0.000006   0.000008  -0.141798  -0.201655
     11       0.000034  -0.498051   0.486222  -0.499981   0.000011   0.000012
     12      -0.439747  -0.000019   0.000016  -0.000026  -0.467036  -0.453190
     13       0.236276   0.000008  -0.000012   0.000014   0.141820   0.201627
     14       0.000017  -0.494987  -0.490259  -0.500008   0.000024  -0.000001
     15       0.439739   0.000002   0.000008   0.000020   0.467018  -0.453209
     16       0.236270   0.000000   0.000002   0.000009   0.141807  -0.201634
     17      -0.000023  -0.494975  -0.490299   0.499992   0.000003  -0.000000
                 12         13         14         15         16         17    
      0       0.068830   0.332636   0.042473   0.055167   0.000003  -0.000001
      1       0.000000   0.000004   0.000001   0.000004  -0.069639   0.070755
      2      -0.000002   0.000001   0.000000   0.000000   0.000000  -0.000000
      3       0.068825  -0.332635   0.042524  -0.055127  -0.000001   0.000001
      4      -0.000000  -0.000004  -0.000001  -0.000002   0.069686   0.070707
      5       0.000001  -0.000000  -0.000000   0.000000  -0.000000  -0.000000
      6      -0.410045  -0.216948  -0.253076  -0.255002  -0.264401   0.264509
      7      -0.281911  -0.384212   0.429900   0.428559   0.421341  -0.421551
      8       0.000003  -0.000001  -0.000000  -0.000001  -0.000001   0.000001
      9      -0.410045  -0.216930  -0.253086  -0.255029   0.264371  -0.264504
     10       0.281911   0.384208  -0.429912  -0.428601   0.421290  -0.421543
     11       0.000009  -0.000012  -0.000000  -0.000001  -0.000001  -0.000000
     12      -0.410083   0.216915  -0.253309   0.254784  -0.264561  -0.264334
     13       0.281929  -0.384202  -0.430288   0.428186  -0.421590  -0.421269
     14       0.000002  -0.000006   0.000000  -0.000001   0.000000   0.000000
     15      -0.410082   0.216946  -0.253321   0.254770   0.264570   0.264326
     16      -0.281930   0.384212   0.430307  -0.428165  -0.421607  -0.421254
     17      -0.000004   0.000004   0.000000  -0.000001   0.000001   0.000001


-----------
IR SPECTRUM
-----------

 Mode   freq       eps      Int      T**2         TX        TY        TZ
       cm**-1   L/(mol*cm) km/mol    a.u.
----------------------------------------------------------------------------
  6:    828.09   0.000063    0.32  0.000024  (-0.000006  0.004876  0.000003)
  7:    979.30   0.020065  101.40  0.006394  ( 0.000004 -0.000002 -0.079962)
  8:    986.71   0.000000    0.00  0.000000  (-0.000000  0.000001 -0.000347)
  9:   1068.64   0.000000    0.00  0.000000  ( 0.000002 -0.000000  0.000001)
 10:   1239.56   0.000000    0.00  0.000000  ( 0.000001  0.000010  0.000001)
 11:   1380.58   0.000000    0.00  0.000000  ( 0.000002  0.000000  0.000002)
 12:   1467.73   0.002234   11.29  0.000475  (-0.021792  0.000000  0.000002)
 13:   1703.52   0.000000    0.00  0.000000  (-0.000001 -0.000001 -0.000001)
 14:   3145.60   0.002839   14.35  0.000282  ( 0.016782 -0.000000 -0.000000)
 15:   3160.97   0.000000    0.00  0.000000  ( 0.000008  0.000000  0.000000)
 16:   3222.61   0.000000    0.00  0.000000  ( 0.000000  0.000003 -0.000000)
 17:   3249.24   0.003480   17.59  0.000334  ( 0.000000  0.018283 -0.000000)

* The epsilon (eps) is given for a Dirac delta lineshape.
** The dipole moment derivative (T) already includes vibrational overlap.

The first frequency considered to be a vibration is 6
The total number of vibrations considered is 12


--------------------------
THERMOCHEMISTRY AT 298.15K
--------------------------

Temperature         ...   298.15 K
Pressure            ...     1.00 atm
Total Mass          ...    28.05 AMU
Quasi RRHO          ...     True
Cut-Off Frequency   ...     1.00 cm^-1

Throughout the following assumptions are being made:
  (1) The electronic state is orbitally nondegenerate
  (2) There are no thermally accessible electronically excited states
  (3) Hindered rotations indicated by low frequency modes are not
      treated as such but are treated as vibrations and this may
      cause some error
  (4) All equations used are the standard statistical mechanics
      equations for an ideal gas
  (5) All vibrations are strictly harmonic

freq.     828.09  E(vib)   ...       0.04 
freq.     979.30  E(vib)   ...       0.03 
freq.     986.71  E(vib)   ...       0.02 
freq.    1068.64  E(vib)   ...       0.02 
freq.    1239.56  E(vib)   ...       0.01 
freq.    1380.58  E(vib)   ...       0.01 
freq.    1467.73  E(vib)   ...       0.00 
freq.    1703.52  E(vib)   ...       0.00 
freq.    3145.60  E(vib)   ...       0.00 
freq.    3160.97  E(vib)   ...       0.00 
freq.    3222.61  E(vib)   ...       0.00 
freq.    3249.24  E(vib)   ...       0.00 

------------
INNER ENERGY
------------

The inner energy is: U= E(el) + E(ZPE) + E(vib) + E(rot) + E(trans)
    E(el)   - is the total energy from the electronic structure calculation
              = E(kin-el) + E(nuc-el) + E(el-el) + E(nuc-nuc)
    E(ZPE)  - the the zero temperature vibrational energy from the frequency calculation
    E(vib)  - the the finite temperature correction to E(ZPE) due to population
              of excited vibrational states
    E(rot)  - is the rotational thermal energy
    E(trans)- is the translational thermal energy

Summary of contributions to the inner energy U:
Electronic energy                ...    -78.51368770 Eh
Zero point energy                ...      0.05110509 Eh      32.07 kcal/mol
Thermal vibrational correction   ...      0.00020766 Eh       0.13 kcal/mol
Thermal rotational correction    ...      0.00141627 Eh       0.89 kcal/mol
Thermal translational correction ...      0.00141627 Eh       0.89 kcal/mol
-----------------------------------------------------------------------
Total thermal energy                    -78.45954241 Eh


Summary of corrections to the electronic energy:
(perhaps to be used in another calculation)
Total thermal correction                  0.00304020 Eh       1.91 kcal/mol
Non-thermal (ZPE) correction              0.05110509 Eh      32.07 kcal/mol
-----------------------------------------------------------------------
Total correction                          0.05414529 Eh      33.98 kcal/mol


--------
ENTHALPY
--------

The enthalpy is H = U + kB*T
                kB is Boltzmann's constant
Total thermal energy              ...    -78.45954241 Eh 
Thermal Enthalpy correction       ...      0.00094421 Eh       0.59 kcal/mol
-----------------------------------------------------------------------
Total Enthalpy                    ...    -78.45859820 Eh


Note: Rotational entropy computed according to Herzberg 
Infrared and Raman Spectra, Chapter V,1, Van Nostrand Reinhold, 1945 
Point Group:  D2h, Symmetry Number:   4  
Rotational constants in cm-1:     4.911280     1.014501     0.840817 

Vibrational entropy computed according to the QRRHO of S. Grimme
Chem.Eur.J. 2012 18 9955 using a reference frequency of 100.0 cm-1


-------
ENTROPY
-------

The entropy contributions are T*S = T*(S(el)+S(vib)+S(rot)+S(trans))
     S(el)   - electronic entropy
     S(vib)  - vibrational entropy
     S(rot)  - rotational entropy
     S(trans)- translational entropy
The entropies will be listed as multiplied by the temperature to get
units of energy

Electronic entropy                ...      0.00000000 Eh      0.00 kcal/mol
Vibrational entropy               ...      0.00025192 Eh      0.16 kcal/mol
Rotational entropy                ...      0.00752560 Eh      4.72 kcal/mol
Translational entropy             ...      0.01707111 Eh     10.71 kcal/mol
-----------------------------------------------------------------------
Final entropy term                ...      0.02484863 Eh     15.59 kcal/mol

In case the symmetry of your molecule has not been determined correctly
or in case you have a reason to use a different symmetry number we print 
out the resulting rotational entropy values for sn=1,12:

 non-linear molecules -----------------------------------
|  sn= 1 | S(rot)=       0.00883452 Eh      5.54 kcal/mol|
|  sn= 2 | S(rot)=       0.00818006 Eh      5.13 kcal/mol|
|  sn= 3 | S(rot)=       0.00779723 Eh      4.89 kcal/mol|
|  sn= 4 | S(rot)=       0.00752560 Eh      4.72 kcal/mol|
|  sn= 5 | S(rot)=       0.00731492 Eh      4.59 kcal/mol|
|  sn= 6 | S(rot)=       0.00714277 Eh      4.48 kcal/mol|
|  sn= 7 | S(rot)=       0.00699723 Eh      4.39 kcal/mol|
|  sn= 8 | S(rot)=       0.00687115 Eh      4.31 kcal/mol|
|  sn= 9 | S(rot)=       0.00675994 Eh      4.24 kcal/mol|
|  sn=10 | S(rot)=       0.00666046 Eh      4.18 kcal/mol|
|  sn=11 | S(rot)=       0.00657047 Eh      4.12 kcal/mol|
|  sn=12 | S(rot)=       0.00648832 Eh      4.07 kcal/mol|
 linear molecules ---------------------------------------
|  Dinfh | S(rot)=       0.00548951 Eh      3.44 kcal/mol|
|  Cinfv | S(rot)=       0.00614397 Eh      3.86 kcal/mol|
 --------------------------------------------------------


-------------------
GIBBS FREE ENERGY
-------------------

The Gibbs free energy is G = H - T*S

Total enthalpy                    ...    -78.45859820 Eh 
Total entropy correction          ...     -0.02484863 Eh    -15.59 kcal/mol
-----------------------------------------------------------------------
Final Gibbs free energy         ...    -78.48344683 Eh

For completeness - the Gibbs free energy minus the electronic energy
G-E(el)                           ...      0.03024087 Eh     18.98 kcal/mol



--------------------------------
SUGGESTED CITATIONS FOR THIS RUN
--------------------------------

Below you find a list of papers that are relevant to this ORCA run
We neither can nor want to force you to cite these papers, but we appreciate if you do
You receive ORCA, which is the product of decades of hard work by many enthusiastic individuals, for free
The only thing we kindly ask in return is that you cite our papers,
We deeply appreciate it, if you show your appreciation for ORCA by not just citing the generic ORCA reference.

Please note that relegating all ORCA citations to the supporting information does *not* help us.
SI sections are not indexed - citations you put there will not count into any citation statistics
But we need these citations in order to attract the funding resources that allow us to do what we are doing

Therefore, if you are a happy ORCA user, please consider citing a few of the papers listed below in the main body of your paper

In addition to the list printed below, the program has created the file C2H4_Freq-PBE0.bibtex that contains the list in bibtex format
You can import this file easily into all common literature databanks and citation aid programs


List of essential papers. We consider these as the minimum necessary citations

  1. Neese,F.
     Software update: the ORCA program system, version 5.0
     WIRES Comput. Molec. Sci., 2022 12(1)e1606
     doi.org/10.1002/wcms.1606

List of papers to cite with high priority. The work reported in these papers was absolutely
necessary for this run to complete.
Our perspective: the developers of density functionals and basis sets usually get cited in chemistry papers
Good! But without the algorithms to do something with them, the functionals or basis sets would not do anything.
Hence, in our opinion, the algorithm design and method developments papers are equally worthy of getting cited

  1. Neese,F.
     An improvement of the resolution of the identity approximation for the formation of the Coulomb matrix
     J. Comp. Chem., 2003 24(14)1740-1747
     doi.org/10.1002/jcc.10318
  2. Neese,F.; Wennmohs,F.; Hansen,A.; Becker,U.
     Efficient, approximate and parallel Hartree-Fock and hybrid DFT calculations. A 'chain-of-spheres' algorithm for the Hartree-Fock exchange
     Chem. Phys., 2009 356(1-3)98-109
     doi.org/10.1016/j.chemphys.2008.10.036
  3. Bykov,D.; Petrenko,T.; Izsak,R.; Kossmann,S.; Becker,U.; Valeev,E.; Neese,F.
     Efficient implementation of the analytic second derivatives of Hartree-Fock and hybrid DFT energies: a detailed analysis of different approximations
     Molec. Phys., 2015 113 1961-1977
     doi.org/10.1080/00268976.2015.1025114
  4. Helmich-Paris,B.; de Souza,B.; Neese,F.; Izsák,R.
     An improved chain of spheres for exchange algorithm
     J. Chem. Phys., 2021 155 104109
     doi.org/doi: 10.1063/5.0058766.
  5. Neese,F.
     The SHARK Integral Generation and Digestion System
     J. Comp. Chem., 2022  1-16
     doi.org/10.1002/jcc.26942

List of suggested additional citations. These are papers that are important in the 'surrounding' of 
of this run, or papers that preceded the highly important papers. If you like your results we are grateful for a citation.

  1. Izsak,R.; Neese,F.
     An overlap fitted chain of spheres exchange method
     J. Chem. Phys., 2011 135 144105
     doi.org/10.1063/1.3646921
  2. Izsak,R.; Hansen,A.; Neese,F.
     The resolution of identity and chain of spheres approximations for the LPNO-CCSD singles Fock term
     Molec. Phys., 2012 110 2413-2417
     doi.org/10.1080/00268976.2012.687466
  3. Neese,F.
     The ORCA program system
     WIRES Comput. Molec. Sci., 2012 2(1)73-78
     doi.org/10.1002/wcms.81
  4. Izsak,R.; Neese,F.; Klopper,W.
     Robust fitting techniques in the chain of spheres approximation to the Fock exchange: The role of the complementary space
     J. Chem. Phys., 2013 139 
     doi.org/10.1063/1.4819264
  5. Neese,F.
     Software update: the ORCA program system, version 4.0
     WIRES Comput. Molec. Sci., 2018 8(1)1-6
     doi.org/10.1002/wcms.1327
  6. Neese,F.; Wennmohs,F.; Becker,U.; Riplinger,C.
     The ORCA quantum chemistry program package
     J. Chem. Phys., 2020 152 Art. No. L224108
     doi.org/10.1063/5.0004608

List of optional additional citations

  1. Neese,F.
     Approximate second-order SCF convergence for spin unrestricted wavefunctions
     Chem. Phys. Lett., 2000 325(1-3)93-98
     doi.org/10.1016/s0009-2614(00)00662-x

Timings for individual modules:

Sum of individual times          ...      475.449 sec (=   7.924 min)
Startup calculation              ...        2.704 sec (=   0.045 min)   0.6 %
SCF iterations                   ...       33.680 sec (=   0.561 min)   7.1 %
Property calculations            ...        0.060 sec (=   0.001 min)   0.0 %
SCF Gradient evaluation          ...       39.486 sec (=   0.658 min)   8.3 %
Geometry relaxation              ...        0.063 sec (=   0.001 min)   0.0 %
Numerical frequency calculation  ...      399.456 sec (=   6.658 min)  84.0 %
                             ****ORCA TERMINATED NORMALLY****
TOTAL RUN TIME: 0 days 0 hours 7 minutes 47 seconds 339 msec
