
                                 *****************
                                 * O   R   C   A *
                                 *****************

                                            #,                                       
                                            ###                                      
                                            ####                                     
                                            #####                                    
                                            ######                                   
                                           ########,                                 
                                     ,,################,,,,,                         
                               ,,#################################,,                 
                          ,,##########################################,,             
                       ,#########################################, ''#####,          
                    ,#############################################,,   '####,        
                  ,##################################################,,,,####,       
                ,###########''''           ''''###############################       
              ,#####''   ,,,,##########,,,,          '''####'''          '####       
            ,##' ,,,,###########################,,,                        '##       
           ' ,,###''''                  '''############,,,                           
         ,,##''                                '''############,,,,        ,,,,,,###''
      ,#''                                            '''#######################'''  
     '                                                          ''''####''''         
             ,#######,   #######,   ,#######,      ##                                
            ,#'     '#,  ##    ##  ,#'     '#,    #''#        ,####,   ,####,        
            ##       ##  ##   ,#'  ##            #'  '#       #'       #'  '#        
            ##       ##  #######   ##           ,######,      #####,   #    #        
            '#,     ,#'  ##    ##  '#,     ,#' ,#      #,     #,   #   #,  ,#        
             '#######'   ##     ##  '#######'  #'      '#     '####' # '####'        



                #########################################################
                #                        -***-                          #
                #          Department of theory and spectroscopy        #
                #                                                       #
                #                      Frank Neese                      #
                #                                                       #
                #     Directorship, Architecture, Infrastructure        #
                #                    SHARK, DRIVERS                     #
                #        Core code/Algorithms in most modules           #
                #                                                       #
                #        Max Planck Institute fuer Kohlenforschung      #
                #                Kaiser Wilhelm Platz 1                 #
                #                 D-45470 Muelheim/Ruhr                 #
                #                      Germany                          #
                #                                                       #
                #                  All rights reserved                  #
                #                        -***-                          #
                #########################################################


                         Program Version 6.0.1  -  RELEASE   -


 With contributions from (in alphabetic order):
[Max-Planck-Institut fuer Kohlenforschung]                               
  Daniel Aravena         : Magnetic Suceptibility                        
  Michael Atanasov       : Ab Initio Ligand Field Theory (pilot matlab implementation)
  Alexander A. Auer      : GIAO ZORA, VPT2 properties, NMR spectrum      
  Ute Becker             : All parallelization in ORCA, NUMFREQ, NUMCALC 
  Giovanni Bistoni       : ED, misc. LED, open-shell LED, HFLD           
  Martin Brehm           : Molecular dynamics                            
  Dmytro Bykov           : pre 5.0 version of the SCF Hessian            
  Marcos Casanova-Páez   : Triplet and SCS-CIS(D). UHF-(DLPNO)-IP/EA/STEOM-CCSD. UHF-CVS-IP/STEOM-CCSD   
  Vijay G. Chilkuri      : MRCI spin determinant printing, contributions to CSF-ICE 
  Pauline Colinet        : FMM embedding                                 
  Dipayan Datta          : RHF DLPNO-CCSD density                        
  Achintya Kumar Dutta   : EOM-CC, STEOM-CC                              
  Nicolas Foglia         : Exact transition moments, OPA infrastructure, MCD improvements    
  Dmitry Ganyushin       : Spin-Orbit,Spin-Spin,Magnetic field MRCI      
  Miquel Garcia-Rates    : C-PCM and meta-GGA Hessian, CCSD/C-PCM, Gaussian charge scheme 
  Tiago L. C. Gouveia    : GS-ROHF, GS-ROCIS                             
  Yang Guo               : DLPNO-NEVPT2, F12-NEVPT2, CIM, IAO-localization        
  Andreas Hansen         : Spin unrestricted coupled pair/coupled cluster methods 
  Ingolf Harden          : AUTO-CI MPn and infrastructure                
  Benjamin Helmich-Paris : MC-RPA, TRAH-(SCF,CASSCF), AVAS, COSX integrals, SCF dyn. polar. 
  Lee Huntington         : MR-EOM, pCC                                   
  Robert Izsak           : Overlap fitted RIJCOSX, COSX-SCS-MP3, EOM     
  Riya Kayal             : Wick's Theorem for AUTO-CI, AUTO-CI UHF-CCSDT 
  Emily Kempfer          : AUTO-CI, RHF CISDT and CCSDT                  
  Christian Kollmar      : KDIIS, OOCD, Brueckner-CCSD(T), CCSD density, CASPT2, CASPT2-K, improved NEVPT2 
  Axel Koslowski         : Symmetry handling                             
  Simone Kossmann        : meta-GGA functionals, TD-DFT gradient, OOMP2, (MP2 Hessian; deprecated post 5.0) 
  Lucas Lang             : DCDCAS                                        
  Marvin Lechner         : AUTO-CI (C++ implementation), FIC-MRCC        
  Spencer Leger          : CASSCF response                               
  Dagmar Lenk            : GEPOL surface, SMD, ORCA-2-JSON               
  Dimitrios Liakos       : Extrapolation schemes; Compound Job, initial MDCI parallelization 
  Dimitrios Manganas     : Further ROCIS development; embedding schemes. LFT, Crystal Embedding 
  Dimitrios Pantazis     : SARC Basis sets                               
  Anastasios Papadopoulos: AUTO-CI, single reference methods and gradients 
  Taras Petrenko         : pre 6.0 DFT Hessian and TD-DFT gradient, (ASA, deprecated), ECA, 1-Electron XAS/XES, NRVS 
  Peter Pinski           : DLPNO-MP2, DLPNO-MP2 Gradient                 
  Christoph Reimann      : Effective Core Potentials                     
  Marius Retegan         : Local ZFS, SOC                                
  Christoph Riplinger    : Optimizer, TS searches, QM/MM, DLPNO-CCSD(T), (RO)-DLPNO pert. Triples 
  Michael Roemelt        : Original ROCIS implementation                 
  Masaaki Saitow         : Open-shell DLPNO-CCSD energy and density      
  Barbara Sandhoefer     : DKH picture change effects                    
  Kantharuban Sivalingam : CASSCF convergence/infrastructure, NEVPT2 and variants, FIC-MRCI 
  Bernardo de Souza      : ESD, SOC TD-DFT                               
  Georgi L. Stoychev     : AutoAux, RI-MP2 NMR, DLPNO-MP2 response, X2C  
  Van Anh Tran           : RI-MP2 g-tensors                              
  Willem Van den Heuvel  : Paramagnetic NMR                              
  Zikuan Wang            : NOTCH, Electric field optimization            
  Frank Wennmohs         : Technical directorship and infrastructure     
  Hang Xu                : AUTO-CI-Response properties                   
                                                                         
[FACCTs GmbH]                                                            
  Markus Bursch, Miquel Garcia-Rates, Christoph Riplinger, Bernardo de Souza, Georgi L. Stoychev 
                                                                 
  APM, Basis sets (HGBS, AHGBS, def-TZVP (Ac-Lr), def2-XVPD (La-Lu)), CI-OPT, improved COSX, DLPNO-Multilevel,           
  DOCKER, DRACO, updates on ESD, GOAT, IRC, LR-CPCM, MBIS, meta-GGA TD-DFT gradient, ML-optimized integration grids, 
  MM, NACMEs, nearIR, NEB, NEB-TS, NL-DFT gradient (VV10), 2- and 3-layer-ONIOM, interface openCOSMO-RS, QMMM,   
  Crystal-QMMM, SF, symmetry and pop. for TD-DFT, r2SCAN hybrids, SOLVATOR                                   
                                                                         
[Other institutions]                                                     
  V. Asgeirsson          : NEB                                           
  Christoph Bannwarth    : sTDA-DFT, sTD-DFT, PBEh-3c, B97-3c, D3        
  Sebastian Ehlert       : rSCAN, r2SCAN, r2SCAN-3c, D4, dhf basis sets  
  Marvin Friede          : D4 for Fr, Ra, Ac-Lr                          
  Lars Goerigk           : TD-DFT with DH, B97 family of functionals     
  Stefan Grimme          : VdW corrections, initial TS optimization, DFT functionals, gCP, sTDA/sTD-DF 
  Waldemar Hujo          : DFT-NL                                        
  H. Jonsson             : NEB                                           
  Holger Kruse           : gCP                                           
  Marcel Mueller         : wB97X-3c, vDZP basis set                      
  Hagen Neugebauer       : wr2SCAN                                       
  Tobias Risthaus        : range-separated hybrid DFT                    
  Lukas Wittmann         : regularized MP2, r2SCAN double-hybrids, wr2SCAN        
                                                                         
We gratefully acknowledge several colleagues who have allowed us to      
interface, adapt or use parts of their codes:                            
  Ed Valeev, F. Pavosevic, A. Kumar             : LibInt (2-el integral package), F12 methods 
  Garnet Chan, S. Sharma, J. Yang, R. Olivares  : DMRG                   
  Ulf Ekstrom                                   : XCFun DFT Library      
  Mihaly Kallay                                 : mrcc  (arbitrary order and MRCC methods)
  Frank Weinhold                                : gennbo (NPA and NBO analysis)           
  Simon Mueller                                 : openCOSMO-RS                            
  Christopher J. Cramer and Donald G. Truhlar   : smd solvation model                     
  S Lehtola, MJT Oliveira, MAL Marques          : LibXC Library                           
  Liviu Ungur et al                             : ANISO software                          


 Your calculation uses the libint2 library for the computation of 2-el integrals
 For citations please refer to: http://libint.valeyev.net

 Your ORCA version has been built with support for libXC version: 6.2.2
 For citations please refer to: https://libxc.gitlab.io

 This ORCA versions uses:
   CBLAS   interface :  Fast vector & matrix operations
   LAPACKE interface :  Fast linear algebra routines
   SCALAPACK package :  Parallel linear algebra routines
   Shared memory     :  Shared parallel matrices
   BLAS/LAPACK       :  OpenBLAS 0.3.27  USE64BITINT DYNAMIC_ARCH NO_AFFINITY Zen SINGLE_THREADED
        Core in use  :  Zen
   Copyright (c) 2011-2014, The OpenBLAS Project


NOTE: MaxCore=4000 MB was set to SCF,MP2,MDCI,CIPSI,MRCI and CIS
      => If you want to overwrite this, your respective input block should be placed after the MaxCore statement
Warning: RI is on but no J-basis has been assigned. Assigning Def2/J (nothing to worry about!)
================================================================================

----- Orbital basis set information -----
Your calculation utilizes the basis: def2-TZVPP
   F. Weigend and R. Ahlrichs, Phys. Chem. Chem. Phys. 7, 3297 (2005).

----- AuxJ basis set information -----
Your calculation utilizes the auxiliary basis: def2/J
   F. Weigend, Phys. Chem. Chem. Phys. 8, 1057 (2006).

================================================================================
                                        WARNINGS
                       Please study these warnings very carefully!
================================================================================


WARNING: Analytical and numerical frequencies both set to true
  ===> : Disabling Anfreq

WARNING: The environment variable RSH_COMMAND is not set!
  ===> : All Displacements for the Numerical Hessian or Gradient calculation
         will be started on localhost

WARNING: Geometry Optimization
  ===> : Switching off AutoStart
         For restart on a previous wavefunction, please use MOREAD

================================================================================
                                       INPUT FILE
================================================================================
NAME = C6H6_Freq-LDA.inp
|  1> ! LDA def2-TZVPP Opt TightOpt VeryTightSCF
|  2> 
|  3> ! Freq
|  4> ! NumFreq
|  5> 
|  6> %scf
|  7>    MaxIter 400          # Máximo de iteraciones permitidas para el SCF
|  8> end
|  9> 
| 10> %geom
| 11>    TolRMSD 1.0e-5
| 12>    TolMAXD 1.0e-4
| 13>    TolRMSG 1.0e-5
| 14>    TolMAXG 1.0e-4
| 15> end
| 16> 
| 17> %pal
| 18>    nprocs 30
| 19> end
| 20> 
| 21> %MaxCore 4000            # Memoria máxima por núcleo (en MB)
| 22> 
| 23> * xyz 0 1
| 24> C      -1.19880240    0.69212860    0.00000000
| 25> C      -1.19880240   -0.69212860    0.00000000
| 26> C       0.00000000   -1.38425390    0.00000000
| 27> C       1.19880240   -0.69212860    0.00000000
| 28> C       1.19880240    0.69212860    0.00000000
| 29> C       0.00000000    1.38425390    0.00000000
| 30> H      -2.13315490   -1.23157780    0.00000000
| 31> H       0.00000000   -2.46315180    0.00000000
| 32> H       2.13315490   -1.23157780    0.00000000
| 33> H       2.13315490    1.23157780    0.00000000
| 34> H       0.00000000    2.46315180    0.00000000
| 35> H      -2.13315490    1.23157780    0.00000000
| 36> **                         ****END OF INPUT****
================================================================================

                       *****************************
                       * Geometry Optimization Run *
                       *****************************

Geometry optimization settings:
Update method            Update   .... BFGS
Choice of coordinates    CoordSys .... (2022) Redundant Internals
Initial Hessian          InHess   .... Almloef's Model
Max. no of cycles        MaxIter  .... 50

Convergence Tolerances:
Energy Change            TolE     ....  1.0000e-06 Eh
Max. Gradient            TolMAXG  ....  1.0000e-04 Eh/bohr
RMS Gradient             TolRMSG  ....  1.0000e-05 Eh/bohr
Max. Displacement        TolMAXD  ....  1.0000e-04 bohr
RMS Displacement         TolRMSD  ....  1.0000e-05 bohr
Strict Convergence                .... False

------------------------------------------------------------------------------
                        ORCA OPTIMIZATION COORDINATE SETUP
------------------------------------------------------------------------------

The optimization will be done in redundant internal coordinates (2022)
Making redundant internal coordinates   ...  (2022 redundants) done
Evaluating the initial hessian          ...  (Almloef) done
Evaluating the coordinates              ...  done
Calculating the B-matrix                .... done
Calculating the G-matrix                .... done
Diagonalizing the G-matrix              .... done
The first mode is                       ....   24
The number of degrees of freedom        ....   30

    -----------------------------------------------------------------
                    Redundant Internal Coordinates


    -----------------------------------------------------------------
         Definition                    Initial Value    Approx d2E/dq
    -----------------------------------------------------------------
      1. B(C   1,C   0)                  1.3843         0.638118   
      2. B(C   2,C   1)                  1.3843         0.638121   
      3. B(C   3,C   2)                  1.3843         0.638121   
      4. B(C   4,C   3)                  1.3843         0.638118   
      5. B(C   5,C   4)                  1.3843         0.638121   
      6. B(C   5,C   0)                  1.3843         0.638121   
      7. B(H   6,C   1)                  1.0789         0.375091   
      8. B(H   7,C   2)                  1.0789         0.375090   
      9. B(H   8,C   3)                  1.0789         0.375091   
     10. B(H   9,C   4)                  1.0789         0.375091   
     11. B(H  10,C   5)                  1.0789         0.375090   
     12. B(H  11,C   0)                  1.0789         0.375091   
     13. A(C   1,C   0,H  11)          120.0000         0.357099   
     14. A(C   5,C   0,H  11)          120.0001         0.357099   
     15. A(C   1,C   0,C   5)          119.9999         0.438595   
     16. A(C   0,C   1,C   2)          119.9999         0.438595   
     17. A(C   2,C   1,H   6)          120.0001         0.357099   
     18. A(C   0,C   1,H   6)          120.0000         0.357099   
     19. A(C   3,C   2,H   7)          119.9999         0.357099   
     20. A(C   1,C   2,H   7)          119.9999         0.357099   
     21. A(C   1,C   2,C   3)          120.0003         0.438595   
     22. A(C   2,C   3,C   4)          119.9999         0.438595   
     23. A(C   4,C   3,H   8)          120.0000         0.357099   
     24. A(C   2,C   3,H   8)          120.0001         0.357099   
     25. A(C   5,C   4,H   9)          120.0001         0.357099   
     26. A(C   3,C   4,H   9)          120.0000         0.357099   
     27. A(C   3,C   4,C   5)          119.9999         0.438595   
     28. A(C   0,C   5,H  10)          119.9999         0.357099   
     29. A(C   0,C   5,C   4)          120.0003         0.438595   
     30. A(C   4,C   5,H  10)          119.9999         0.357099   
     31. D(H   6,C   1,C   0,C   5)    180.0000         0.028280   
     32. D(H   6,C   1,C   0,H  11)      0.0000         0.028280   
     33. D(C   2,C   1,C   0,H  11)    180.0000         0.028280   
     34. D(C   2,C   1,C   0,C   5)      0.0000         0.028280   
     35. D(H   7,C   2,C   1,C   0)    180.0000         0.028280   
     36. D(C   3,C   2,C   1,C   0)      0.0000         0.028280   
     37. D(C   3,C   2,C   1,H   6)    180.0000         0.028280   
     38. D(H   7,C   2,C   1,H   6)      0.0000         0.028280   
     39. D(H   8,C   3,C   2,H   7)      0.0000         0.028280   
     40. D(H   8,C   3,C   2,C   1)    180.0000         0.028280   
     41. D(C   4,C   3,C   2,H   7)    180.0000         0.028280   
     42. D(C   4,C   3,C   2,C   1)      0.0000         0.028280   
     43. D(H   9,C   4,C   3,C   2)    180.0000         0.028280   
     44. D(C   5,C   4,C   3,H   8)    180.0000         0.028280   
     45. D(C   5,C   4,C   3,C   2)      0.0000         0.028280   
     46. D(H   9,C   4,C   3,H   8)      0.0000         0.028280   
     47. D(H  10,C   5,C   4,H   9)      0.0000         0.028280   
     48. D(C   0,C   5,C   4,H   9)    180.0000         0.028280   
     49. D(C   0,C   5,C   4,C   3)      0.0000         0.028280   
     50. D(H  10,C   5,C   0,H  11)      0.0000         0.028280   
     51. D(H  10,C   5,C   0,C   1)    180.0000         0.028280   
     52. D(H  10,C   5,C   4,C   3)    180.0000         0.028280   
     53. D(C   4,C   5,C   0,H  11)    180.0000         0.028280   
     54. D(C   4,C   5,C   0,C   1)      0.0000         0.028280   
    -----------------------------------------------------------------

Number of atoms                         .... 12
Number of degrees of freedom            .... 54


         *************************************************************
         *                GEOMETRY OPTIMIZATION CYCLE   1            *
         *************************************************************
---------------------------------
CARTESIAN COORDINATES (ANGSTROEM)
---------------------------------
  C     -1.198802    0.692129    0.000000
  C     -1.198802   -0.692129    0.000000
  C      0.000000   -1.384254    0.000000
  C      1.198802   -0.692129    0.000000
  C      1.198802    0.692129    0.000000
  C      0.000000    1.384254    0.000000
  H     -2.133155   -1.231578    0.000000
  H      0.000000   -2.463152    0.000000
  H      2.133155   -1.231578    0.000000
  H      2.133155    1.231578    0.000000
  H      0.000000    2.463152    0.000000
  H     -2.133155    1.231578    0.000000

----------------------------
CARTESIAN COORDINATES (A.U.)
----------------------------
  NO LB      ZA    FRAG     MASS         X           Y           Z
   0 C     6.0000    0    12.011   -2.265408    1.307934    0.000000
   1 C     6.0000    0    12.011   -2.265408   -1.307934    0.000000
   2 C     6.0000    0    12.011    0.000000   -2.615861    0.000000
   3 C     6.0000    0    12.011    2.265408   -1.307934    0.000000
   4 C     6.0000    0    12.011    2.265408    1.307934    0.000000
   5 C     6.0000    0    12.011    0.000000    2.615861    0.000000
   6 H     1.0000    0     1.008   -4.031079   -2.327345    0.000000
   7 H     1.0000    0     1.008    0.000000   -4.654682    0.000000
   8 H     1.0000    0     1.008    4.031079   -2.327345    0.000000
   9 H     1.0000    0     1.008    4.031079    2.327345    0.000000
  10 H     1.0000    0     1.008    0.000000    4.654682    0.000000
  11 H     1.0000    0     1.008   -4.031079    2.327345    0.000000

--------------------------------
INTERNAL COORDINATES (ANGSTROEM)
--------------------------------
 C      0   0   0     0.000000000000     0.00000000     0.00000000
 C      1   0   0     1.384257200000     0.00000000     0.00000000
 C      2   1   0     1.384255982521   119.99987137     0.00000000
 C      3   2   1     1.384255982521   120.00025725     0.00000000
 C      4   3   2     1.384257200000   119.99987137     0.00000000
 C      1   2   3     1.384255982521   119.99987137     0.00000000
 H      2   1   3     1.078897601090   120.00002450   180.00000000
 H      3   2   1     1.078897900000   119.99987137   180.00000085
 H      4   3   2     1.078897601090   120.00010413   180.00000000
 H      5   4   3     1.078897601090   120.00002450   180.00000000
 H      6   1   2     1.078897900000   119.99987137   180.00000085
 H      1   2   3     1.078897601090   120.00002450   180.00000000

---------------------------
INTERNAL COORDINATES (A.U.)
---------------------------
 C      0   0   0     0.000000000000     0.00000000     0.00000000
 C      1   0   0     2.615867006909     0.00000000     0.00000000
 C      2   1   0     2.615864706207   119.99987137     0.00000000
 C      3   2   1     2.615864706207   120.00025725     0.00000000
 C      4   3   2     2.615867006909   119.99987137     0.00000000
 C      1   2   3     2.615864706207   119.99987137     0.00000000
 H      2   1   3     2.038820992604   120.00002450   180.00000000
 H      3   2   1     2.038821557463   119.99987137   180.00000085
 H      4   3   2     2.038820992604   120.00010413   180.00000000
 H      5   4   3     2.038820992604   120.00002450   180.00000000
 H      6   1   2     2.038821557463   119.99987137   180.00000085
 H      1   2   3     2.038820992604   120.00002450   180.00000000

---------------------
BASIS SET INFORMATION
---------------------
There are 2 groups of distinct atoms

 Group   1 Type C   : 11s6p2d1f contracted to 5s3p2d1f pattern {62111/411/11/1}
 Group   2 Type H   : 5s2p1d contracted to 3s2p1d pattern {311/11/1}

Atom   0C    basis set group =>   1
Atom   1C    basis set group =>   1
Atom   2C    basis set group =>   1
Atom   3C    basis set group =>   1
Atom   4C    basis set group =>   1
Atom   5C    basis set group =>   1
Atom   6H    basis set group =>   2
Atom   7H    basis set group =>   2
Atom   8H    basis set group =>   2
Atom   9H    basis set group =>   2
Atom  10H    basis set group =>   2
Atom  11H    basis set group =>   2
---------------------------------
AUXILIARY/J BASIS SET INFORMATION
---------------------------------
There are 2 groups of distinct atoms

 Group   1 Type C   : 12s5p4d2f1g contracted to 6s4p3d1f1g pattern {711111/2111/211/2/1}
 Group   2 Type H   : 5s2p1d contracted to 3s1p1d pattern {311/2/1}

Atom   0C    basis set group =>   1
Atom   1C    basis set group =>   1
Atom   2C    basis set group =>   1
Atom   3C    basis set group =>   1
Atom   4C    basis set group =>   1
Atom   5C    basis set group =>   1
Atom   6H    basis set group =>   2
Atom   7H    basis set group =>   2
Atom   8H    basis set group =>   2
Atom   9H    basis set group =>   2
Atom  10H    basis set group =>   2
Atom  11H    basis set group =>   2


           ************************************************************
           *        Program running with 30 parallel MPI-processes    *
           *              working on a common directory               *
           ************************************************************
------------------------------------------------------------------------------
                             ORCA STARTUP CALCULATIONS
                           -- RI-GTO INTEGRALS CHOSEN --
------------------------------------------------------------------------------
------------------------------------------------------------------------------
                   ___                                                        
                  /   \      - P O W E R E D   B Y -                         
                 /     \                                                     
                 |  |  |   _    _      __       _____    __    __             
                 |  |  |  | |  | |    /  \     |  _  \  |  |  /  |          
                  \  \/   | |  | |   /    \    | | | |  |  | /  /          
                 / \  \   | |__| |  /  /\  \   | |_| |  |  |/  /          
                |  |  |   |  __  | /  /__\  \  |    /   |      \           
                |  |  |   | |  | | |   __   |  |    \   |  |\   \          
                \     /   | |  | | |  |  |  |  | |\  \  |  | \   \       
                 \___/    |_|  |_| |__|  |__|  |_| \__\ |__|  \__/        
                                                                              
                      - O R C A' S   B I G   F R I E N D -                    
                                      &                                       
                       - I N T E G R A L  F E E D E R -                       
                                                                              
 v1 FN, 2020, v2 2021, v3 2022-2024                                           
------------------------------------------------------------------------------


----------------------
SHARK INTEGRAL PACKAGE
----------------------

Number of atoms                             ...     12
Number of basis functions                   ...    270
Number of shells                            ...    102
Maximum angular momentum                    ...      3
Integral batch strategy                     ... SHARK/LIBINT Hybrid
RI-J (if used) integral strategy            ... SPLIT-RIJ (Revised 2003 algorithm where possible)
Printlevel                                  ...      1
Contraction scheme used                     ... SEGMENTED contraction
Prescreening option                         ... SCHWARTZ
   Thresh                                   ... 1.000e-12
   Tcut                                     ... 1.000e-14
   Tpresel                                  ... 1.000e-14 
Coulomb Range Separation                    ... NOT USED
Exchange Range Separation                   ... NOT USED
Multipole approximations                    ... NOT USED
Finite Nucleus Model                        ... NOT USED
CABS basis                                  ... NOT available
Auxiliary Coulomb fitting basis             ... AVAILABLE
   # of basis functions in Aux-J            ...    360
   # of shells in Aux-J                     ...    120
   Maximum angular momentum in Aux-J        ...      4
Auxiliary J/K fitting basis                 ... NOT available
Auxiliary Correlation fitting basis         ... NOT available
Auxiliary 'external' fitting basis          ... NOT available

Checking pre-screening integrals            ... done (  0.0 sec) Dimension = 102
Check shell pair data                       ... done (  0.0 sec)
Shell pair information
Shell pair cut-off parameter TPreSel        ...   1.0e-14
Total number of shell pairs                 ...      5253
Shell pairs after pre-screening             ...      5046
Total number of primitive shell pairs       ...     14346
Primitive shell pairs kept                  ...     11325
          la=0 lb=0:   1095 shell pairs
          la=1 lb=0:   1386 shell pairs
          la=1 lb=1:    456 shell pairs
          la=2 lb=0:    822 shell pairs
          la=2 lb=1:    522 shell pairs
          la=2 lb=2:    168 shell pairs
          la=3 lb=0:    288 shell pairs
          la=3 lb=1:    180 shell pairs
          la=3 lb=2:    108 shell pairs
          la=3 lb=3:     21 shell pairs

Calculating one electron integrals          ... done (  0.0 sec)
Calculating RI/J V-Matrix + Cholesky decomp.... done (  0.0 sec)
Calculating Nuclear repulsion               ... done (  0.0 sec) ENN=    204.957759944352 Eh

Diagonalization of the overlap matrix:
Smallest eigenvalue                        ... 9.606e-06
Time for diagonalization                   ...    0.017 sec
Threshold for overlap eigenvalues          ... 1.000e-07
Number of eigenvalues below threshold      ... 0
Time for construction of square roots      ...    0.011 sec
Total time needed                          ...    0.030 sec

-------------------
DFT GRID GENERATION
-------------------

General Integration Accuracy     IntAcc      ... 4.388
Radial Grid Type                 RadialGrid  ... OptM3 with GC (2021)
Angular Grid (max. ang.)         AngularGrid ... 4 (Lebedev-302)
Angular grid pruning method      GridPruning ... 4 (adaptive)
Weight generation scheme         WeightScheme... mBecke (2022)
Basis function cutoff            BFCut       ... 1.0000e-12
Integration weight cutoff        WCut        ... 1.0000e-14
Partially contracted basis set               ... off
Rotationally invariant grid construction     ... off
Angular grids for H and He will be reduced by one unit

Total number of grid points                  ...    55482
Total number of batches                      ...      874
Average number of points per batch           ...       63
Average number of grid points per atom       ...     4624
Initializing property integral containers    ... done (  0.0 sec)

SHARK setup successfully completed in   0.6 seconds

Maximum memory used throughout the entire STARTUP-calculation: 19.2 MB


           ************************************************************
           *        Program running with 30 parallel MPI-processes    *
           *              working on a common directory               *
           ************************************************************
-------------------------------------------------------------------------------
                                 ORCA GUESS
                   Start orbitals & Density for SCF / CASSCF
-------------------------------------------------------------------------------

------------
SCF SETTINGS
------------
Hamiltonian:
 Density Functional     Method          .... DFT(GTOs)
 Exchange Functional    Exchange        .... Slater
   X-Alpha parameter    XAlpha          ....  0.666667
 Correlation Functional Correlation     .... VWN-5
 Gradients option       PostSCFGGA      .... off
 RI-approximation to the Coulomb term is turned on
   Number of AuxJ basis functions       .... 360


General Settings:
 Integral files         IntName         .... C6H6_Freq-LDA
 Hartree-Fock type      HFTyp           .... RHF
 Total Charge           Charge          ....    0
 Multiplicity           Mult            ....    1
 Number of Electrons    NEL             ....   42
 Basis Dimension        Dim             ....  270
 Nuclear Repulsion      ENuc            ....    204.9577599444 Eh

Convergence Acceleration:
 AO-DIIS                CNVDIIS         .... on
   Start iteration      DIISMaxIt       ....    12
   Startup error        DIISStart       ....  0.200000
   # of expansion vecs  DIISMaxEq       ....     5
   Bias factor          DIISBfac        ....   1.050
   Max. coefficient     DIISMaxC        ....  10.000
 MO-DIIS                CNVKDIIS        .... off
 Trust-Rad. Augm. Hess. CNVTRAH         .... auto
   Auto Start mean grad. ratio tolernc. ....  1.125000
   Auto Start start iteration           ....    50
   Auto Start num. interpolation iter.  ....    10
   Max. Number of Micro iterations      ....    24
   Max. Number of Macro iterations      .... Maxiter - #DIIS iter
   Number of Davidson start vectors     ....     2
   Converg. threshold    (grad. norm)   ....   2.000e-06
   Grad. Scal. Fac. for Micro threshold ....   0.100
   Minimum threshold for Micro iter.    ....   1.000e-02
   NR start threshold (gradient norm)   ....   1.000e-04
   Initial trust radius                 ....   0.400
   Minimum AH scaling param. (alpha)    ....   1.000
   Maximum AH scaling param. (alpha)    .... 1000.000
   Quad. conv. algorithm                .... NR
   White noise on init. David. guess    .... on
   Maximum white noise                  ....   0.010
   Pseudo random numbers                .... off
   Inactive MOs                         .... canonical
   Orbital update algorithm             .... Taylor
   Preconditioner                       .... Diag
   Full preconditioner red. dimension   ....   250
 SOSCF                  CNVSOSCF        .... on
   Start iteration      SOSCFMaxIt      ....   150
   Startup grad/error   SOSCFStart      ....  0.003300
   Hessian update       SOSCFHessUp     .... L-BFGS
 Level Shifting         CNVShift        .... on
   Level shift para.    LevelShift      ....    0.2500
   Turn off err/grad.   ShiftErr        ....    0.0010
 Zerner damping         CNVZerner       .... off
 Static damping         CNVDamp         .... on
   Fraction old density DampFac         ....    0.7000
   Max. Damping (<1)    DampMax         ....    0.9800
   Min. Damping (>=0)   DampMin         ....    0.0000
   Turn off err/grad.   DampErr         ....    0.1000

SCF Procedure:
 Maximum # iterations   MaxIter         ....   400
 SCF integral mode      SCFMode         .... Direct
   Integral package                     .... SHARK and LIBINT hybrid scheme
 Reset frequency        DirectResetFreq ....    20
 Integral Threshold     Thresh          ....  1.000e-12 Eh
 Primitive CutOff       TCut            ....  1.000e-14 Eh

Convergence Tolerance:
 Convergence Check Mode ConvCheckMode   .... Total+1el-Energy
 Convergence forced     ConvForced      .... 0
 Energy Change          TolE            ....  1.000e-09 Eh
 1-El. energy change                    ....  1.000e-06 Eh
 Orbital Gradient       TolG            ....  2.000e-06
 Orbital Rotation angle TolX            ....  2.000e-06
 DIIS Error             TolErr          ....  1.000e-08

------------------------------
INITIAL GUESS: MODEL POTENTIAL
------------------------------
Loading Hartree-Fock densities                     ... done
Calculating cut-offs                               ... done
Initializing the effective Hamiltonian             ... done
Setting up the integral package (SHARK)            ... done
Starting the Coulomb interaction                   ... done (   0.0 sec)
Making the grid                                    ... done (   0.1 sec)
Mapping shells                                     ... done
Starting the XC term evaluation                    ... done (   0.0 sec)
  promolecular density results
     # of electrons  =     41.997045641
     EX              =    -29.376260009
     EC              =     -2.643864230
     EX+EC           =    -32.020124239
Transforming the Hamiltonian                       ... done (   0.0 sec)
Diagonalizing the Hamiltonian                      ... done (   0.0 sec)
Back transforming the eigenvectors                 ... done (   0.0 sec)
Now organizing SCF variables                       ... done
                      ------------------
                      INITIAL GUESS DONE (   0.2 sec)
                      ------------------
             **** ENERGY FILE WAS UPDATED (C6H6_Freq-LDA.en.tmp) ****
Finished Guess after   0.7 sec
Maximum memory used throughout the entire GUESS-calculation: 14.2 MB


           ************************************************************
           *        Program running with 30 parallel MPI-processes    *
           *              working on a common directory               *
           ************************************************************

-------------------------------------------------------------------------------------------
                                      ORCA LEAN-SCF
                              memory conserving SCF solver
-------------------------------------------------------------------------------------------

----------------------------------------D-I-I-S--------------------------------------------
Iteration    Energy (Eh)           Delta-E    RMSDP     MaxDP     DIISErr   Damp  Time(sec)
-------------------------------------------------------------------------------------------
               ***  Starting incremental Fock matrix formation  ***
    1    -230.0155737358828674     0.00e+00  1.17e-03  2.64e-02  1.54e-01  0.700   0.2
    2    -230.0975897561612555    -8.20e-02  7.99e-04  1.69e-02  7.20e-02  0.700   0.3
                               ***Turning on AO-DIIS***
    3    -230.1265635492796946    -2.90e-02  3.16e-04  7.43e-03  2.09e-02  0.700   0.2
    4    -230.1437063566576171    -1.71e-02  5.23e-04  1.54e-02  1.06e-02  0.000   0.3
    5    -230.1826341334651147    -3.89e-02  1.52e-04  4.04e-03  5.43e-03  0.000   0.2
                              *** Initializing SOSCF ***
---------------------------------------S-O-S-C-F--------------------------------------
Iteration    Energy (Eh)           Delta-E    RMSDP     MaxDP     MaxGrad    Time(sec)
--------------------------------------------------------------------------------------
    6    -230.1829355935815329    -3.01e-04  8.94e-05  1.89e-03  8.31e-04     0.3
               *** Restarting incremental Fock matrix formation ***
    7    -230.1829481674363933    -1.26e-05  6.97e-05  1.12e-03  1.65e-04     0.2
    8    -230.1829489913770317    -8.24e-07  6.46e-06  1.17e-04  4.95e-05     0.2
    9    -230.1829490487509133    -5.74e-08  3.86e-06  5.81e-05  1.84e-05     0.2
   10    -230.1829490574380088    -8.69e-09  7.71e-07  1.36e-05  7.64e-06     0.2
   11    -230.1829490576279795    -1.90e-10  8.35e-07  1.38e-05  6.46e-06     0.2
                 **** Energy Check signals convergence ****

               *****************************************************
               *                     SUCCESS                       *
               *           SCF CONVERGED AFTER  11 CYCLES          *
               *****************************************************

             **** ENERGY FILE WAS UPDATED (C6H6_Freq-LDA.en.tmp) ****

----------------
TOTAL SCF ENERGY
----------------

Total Energy       :       -230.18294905762798 Eh           -6263.59648 eV

Components:
Nuclear Repulsion  :        204.95775994435201 Eh            5577.18419 eV
Electronic Energy  :       -435.14070900197999 Eh          -11840.78067 eV
One Electron Energy:       -717.16449680663402 Eh          -19515.03808 eV
Two Electron Energy:        282.02378780465403 Eh            7674.25742 eV

Virial components:
Potential Energy   :       -458.73882462453514 Eh          -12482.91804 eV
Kinetic Energy     :        228.55587556690719 Eh            6219.32156 eV
Virial Ratio       :          2.00711893092525

DFT components:
N(Alpha)           :       21.000022349978 electrons
N(Beta)            :       21.000022349978 electrons
N(Total)           :       42.000044699957 electrons
E(X)               :      -29.880088150573 Eh       
E(C)               :       -2.679582313705 Eh       
E(XC)              :      -32.559670464278 Eh       

---------------
SCF CONVERGENCE
---------------

  Last Energy change         ...    1.8997e-10  Tolerance :   1.0000e-09
  Last MAX-Density change    ...    1.3801e-05  Tolerance :   1.0000e-08
  Last RMS-Density change    ...    8.3488e-07  Tolerance :   1.0000e-09
  Last DIIS Error            ...    8.3074e-04  Tolerance :   1.0000e-08
  Last Orbital Gradient      ...    6.4554e-06  Tolerance :   2.0000e-06
  Last Orbital Rotation      ...    6.3166e-06  Tolerance :   2.0000e-06


----------------
ORBITAL ENERGIES
----------------

  NO   OCC          E(Eh)            E(eV) 
   0   2.0000      -9.785601      -266.2797 
   1   2.0000      -9.785467      -266.2761 
   2   2.0000      -9.785465      -266.2760 
   3   2.0000      -9.785020      -266.2639 
   4   2.0000      -9.785018      -266.2639 
   5   2.0000      -9.784841      -266.2591 
   6   2.0000      -0.782086       -21.2816 
   7   2.0000      -0.676631       -18.4121 
   8   2.0000      -0.676630       -18.4120 
   9   2.0000      -0.545470       -14.8430 
  10   2.0000      -0.545468       -14.8430 
  11   2.0000      -0.480741       -13.0816 
  12   2.0000      -0.408462       -11.1148 
  13   2.0000      -0.407536       -11.0896 
  14   2.0000      -0.378542       -10.3006 
  15   2.0000      -0.378542       -10.3006 
  16   2.0000      -0.343403        -9.3445 
  17   2.0000      -0.303434        -8.2569 
  18   2.0000      -0.303432        -8.2568 
  19   2.0000      -0.240463        -6.5433 
  20   2.0000      -0.240462        -6.5433 
  21   0.0000      -0.049165        -1.3378 
  22   0.0000      -0.049163        -1.3378 
  23   0.0000       0.023582         0.6417 
  24   0.0000       0.059615         1.6222 
  25   0.0000       0.059618         1.6223 
  26   0.0000       0.086647         2.3578 
  27   0.0000       0.086649         2.3578 
  28   0.0000       0.094679         2.5763 
  29   0.0000       0.113836         3.0976 
  30   0.0000       0.117589         3.1998 
  31   0.0000       0.174346         4.7442 
*Only the first 10 virtual orbitals were printed.

                    ********************************
                    * MULLIKEN POPULATION ANALYSIS *
                    ********************************

-----------------------
MULLIKEN ATOMIC CHARGES
-----------------------
   0 C :   -0.177352
   1 C :   -0.177352
   2 C :   -0.177312
   3 C :   -0.177352
   4 C :   -0.177352
   5 C :   -0.177312
   6 H :    0.177322
   7 H :    0.177371
   8 H :    0.177322
   9 H :    0.177322
  10 H :    0.177371
  11 H :    0.177322
Sum of atomic charges:    0.0000000

--------------------------------
MULLIKEN REDUCED ORBITAL CHARGES
--------------------------------
  0 C s       :     3.233359  s :     3.233359
      pz      :     0.953562  p :     2.838757
      px      :     0.976550
      py      :     0.908645
      dz2     :     0.005649  d :     0.098885
      dxz     :     0.010426
      dyz     :     0.019514
      dx2y2   :     0.021931
      dxy     :     0.041365
      f0      :     0.001306  f :     0.006350
      f+1     :     0.000442
      f-1     :     0.000258
      f+2     :     0.000903
      f-2     :     0.000468
      f+3     :     0.002359
      f-3     :     0.000615

  1 C s       :     3.233360  s :     3.233360
      pz      :     0.953562  p :     2.838757
      px      :     0.976550
      py      :     0.908645
      dz2     :     0.005649  d :     0.098885
      dxz     :     0.010426
      dyz     :     0.019514
      dx2y2   :     0.021931
      dxy     :     0.041365
      f0      :     0.001306  f :     0.006350
      f+1     :     0.000442
      f-1     :     0.000258
      f+2     :     0.000903
      f-2     :     0.000468
      f+3     :     0.002359
      f-3     :     0.000615

  2 C s       :     3.233334  s :     3.233334
      pz      :     0.953547  p :     2.838754
      px      :     0.874667
      py      :     1.010540
      dz2     :     0.005649  d :     0.098875
      dxz     :     0.024056
      dyz     :     0.005878
      dx2y2   :     0.051095
      dxy     :     0.012195
      f0      :     0.001305  f :     0.006350
      f+1     :     0.000165
      f-1     :     0.000535
      f+2     :     0.000251
      f-2     :     0.001120
      f+3     :     0.002359
      f-3     :     0.000615

  3 C s       :     3.233360  s :     3.233360
      pz      :     0.953562  p :     2.838757
      px      :     0.976550
      py      :     0.908645
      dz2     :     0.005649  d :     0.098885
      dxz     :     0.010426
      dyz     :     0.019514
      dx2y2   :     0.021931
      dxy     :     0.041365
      f0      :     0.001306  f :     0.006350
      f+1     :     0.000442
      f-1     :     0.000258
      f+2     :     0.000903
      f-2     :     0.000468
      f+3     :     0.002359
      f-3     :     0.000615

  4 C s       :     3.233359  s :     3.233359
      pz      :     0.953562  p :     2.838757
      px      :     0.976550
      py      :     0.908645
      dz2     :     0.005649  d :     0.098885
      dxz     :     0.010426
      dyz     :     0.019514
      dx2y2   :     0.021931
      dxy     :     0.041365
      f0      :     0.001306  f :     0.006350
      f+1     :     0.000442
      f-1     :     0.000258
      f+2     :     0.000903
      f-2     :     0.000468
      f+3     :     0.002359
      f-3     :     0.000615

  5 C s       :     3.233334  s :     3.233334
      pz      :     0.953547  p :     2.838754
      px      :     0.874667
      py      :     1.010540
      dz2     :     0.005649  d :     0.098875
      dxz     :     0.024056
      dyz     :     0.005878
      dx2y2   :     0.051095
      dxy     :     0.012195
      f0      :     0.001305  f :     0.006350
      f+1     :     0.000165
      f-1     :     0.000535
      f+2     :     0.000251
      f-2     :     0.001120
      f+3     :     0.002359
      f-3     :     0.000615

  6 H s       :     0.791659  s :     0.791659
      pz      :     0.013177  p :     0.030012
      px      :     0.008567
      py      :     0.008268
      dz2     :    -0.000105  d :     0.001007
      dxz     :     0.000484
      dyz     :     0.000169
      dx2y2   :     0.000508
      dxy     :    -0.000049

  7 H s       :     0.791628  s :     0.791628
      pz      :     0.013174  p :     0.029995
      px      :     0.008110
      py      :     0.008711
      dz2     :    -0.000105  d :     0.001006
      dxz     :     0.000012
      dyz     :     0.000641
      dx2y2   :    -0.000328
      dxy     :     0.000787

  8 H s       :     0.791659  s :     0.791659
      pz      :     0.013177  p :     0.030012
      px      :     0.008567
      py      :     0.008268
      dz2     :    -0.000105  d :     0.001007
      dxz     :     0.000484
      dyz     :     0.000169
      dx2y2   :     0.000508
      dxy     :    -0.000049

  9 H s       :     0.791659  s :     0.791659
      pz      :     0.013177  p :     0.030012
      px      :     0.008567
      py      :     0.008268
      dz2     :    -0.000105  d :     0.001007
      dxz     :     0.000484
      dyz     :     0.000169
      dx2y2   :     0.000508
      dxy     :    -0.000049

 10 H s       :     0.791628  s :     0.791628
      pz      :     0.013174  p :     0.029995
      px      :     0.008110
      py      :     0.008711
      dz2     :    -0.000105  d :     0.001006
      dxz     :     0.000012
      dyz     :     0.000641
      dx2y2   :    -0.000328
      dxy     :     0.000787

 11 H s       :     0.791659  s :     0.791659
      pz      :     0.013177  p :     0.030012
      px      :     0.008567
      py      :     0.008268
      dz2     :    -0.000105  d :     0.001007
      dxz     :     0.000484
      dyz     :     0.000169
      dx2y2   :     0.000508
      dxy     :    -0.000049



                     *******************************
                     * LOEWDIN POPULATION ANALYSIS *
                     *******************************

----------------------
LOEWDIN ATOMIC CHARGES
----------------------
   0 C :   -0.024947
   1 C :   -0.024947
   2 C :   -0.024946
   3 C :   -0.024947
   4 C :   -0.024947
   5 C :   -0.024946
   6 H :    0.024946
   7 H :    0.024948
   8 H :    0.024946
   9 H :    0.024946
  10 H :    0.024948
  11 H :    0.024946

-------------------------------
LOEWDIN REDUCED ORBITAL CHARGES
-------------------------------
  0 C s       :     2.716997  s :     2.716997
      pz      :     0.846542  p :     2.872007
      px      :     1.003829
      py      :     1.021636
      dz2     :     0.025428  d :     0.392535
      dxz     :     0.030148
      dyz     :     0.060564
      dx2y2   :     0.123314
      dxy     :     0.153081
      f0      :     0.002351  f :     0.043409
      f+1     :     0.003259
      f-1     :     0.003664
      f+2     :     0.006135
      f-2     :     0.003358
      f+3     :     0.016699
      f-3     :     0.007942

  1 C s       :     2.716997  s :     2.716997
      pz      :     0.846542  p :     2.872007
      px      :     1.003829
      py      :     1.021636
      dz2     :     0.025428  d :     0.392535
      dxz     :     0.030148
      dyz     :     0.060564
      dx2y2   :     0.123314
      dxy     :     0.153081
      f0      :     0.002351  f :     0.043409
      f+1     :     0.003259
      f-1     :     0.003664
      f+2     :     0.006135
      f-2     :     0.003358
      f+3     :     0.016699
      f-3     :     0.007942

  2 C s       :     2.716997  s :     2.716997
      pz      :     0.846540  p :     2.872006
      px      :     1.030541
      py      :     0.994925
      dz2     :     0.025428  d :     0.392534
      dxz     :     0.075772
      dyz     :     0.014940
      dx2y2   :     0.167966
      dxy     :     0.108429
      f0      :     0.002351  f :     0.043409
      f+1     :     0.003866
      f-1     :     0.003056
      f+2     :     0.001970
      f-2     :     0.007524
      f+3     :     0.016699
      f-3     :     0.007942

  3 C s       :     2.716997  s :     2.716997
      pz      :     0.846542  p :     2.872007
      px      :     1.003829
      py      :     1.021636
      dz2     :     0.025428  d :     0.392535
      dxz     :     0.030148
      dyz     :     0.060564
      dx2y2   :     0.123314
      dxy     :     0.153081
      f0      :     0.002351  f :     0.043409
      f+1     :     0.003259
      f-1     :     0.003664
      f+2     :     0.006135
      f-2     :     0.003358
      f+3     :     0.016699
      f-3     :     0.007942

  4 C s       :     2.716997  s :     2.716997
      pz      :     0.846542  p :     2.872007
      px      :     1.003829
      py      :     1.021636
      dz2     :     0.025428  d :     0.392535
      dxz     :     0.030148
      dyz     :     0.060564
      dx2y2   :     0.123314
      dxy     :     0.153081
      f0      :     0.002351  f :     0.043409
      f+1     :     0.003259
      f-1     :     0.003664
      f+2     :     0.006135
      f-2     :     0.003358
      f+3     :     0.016699
      f-3     :     0.007942

  5 C s       :     2.716997  s :     2.716997
      pz      :     0.846540  p :     2.872006
      px      :     1.030541
      py      :     0.994925
      dz2     :     0.025428  d :     0.392534
      dxz     :     0.075772
      dyz     :     0.014940
      dx2y2   :     0.167966
      dxy     :     0.108429
      f0      :     0.002351  f :     0.043409
      f+1     :     0.003866
      f-1     :     0.003056
      f+2     :     0.001970
      f-2     :     0.007524
      f+3     :     0.016699
      f-3     :     0.007942

  6 H s       :     0.794341  s :     0.794341
      pz      :     0.042404  p :     0.151287
      px      :     0.063390
      py      :     0.045493
      dz2     :     0.002693  d :     0.029426
      dxz     :     0.006351
      dyz     :     0.002147
      dx2y2   :     0.009390
      dxy     :     0.008845

  7 H s       :     0.794340  s :     0.794340
      pz      :     0.042403  p :     0.151285
      px      :     0.036543
      py      :     0.072338
      dz2     :     0.002693  d :     0.029426
      dxz     :     0.000044
      dyz     :     0.008454
      dx2y2   :     0.008573
      dxy     :     0.009663

  8 H s       :     0.794341  s :     0.794341
      pz      :     0.042404  p :     0.151287
      px      :     0.063390
      py      :     0.045493
      dz2     :     0.002693  d :     0.029426
      dxz     :     0.006351
      dyz     :     0.002147
      dx2y2   :     0.009390
      dxy     :     0.008845

  9 H s       :     0.794341  s :     0.794341
      pz      :     0.042404  p :     0.151287
      px      :     0.063390
      py      :     0.045493
      dz2     :     0.002693  d :     0.029426
      dxz     :     0.006351
      dyz     :     0.002147
      dx2y2   :     0.009390
      dxy     :     0.008845

 10 H s       :     0.794340  s :     0.794340
      pz      :     0.042403  p :     0.151285
      px      :     0.036543
      py      :     0.072338
      dz2     :     0.002693  d :     0.029426
      dxz     :     0.000044
      dyz     :     0.008454
      dx2y2   :     0.008573
      dxy     :     0.009663

 11 H s       :     0.794341  s :     0.794341
      pz      :     0.042404  p :     0.151287
      px      :     0.063390
      py      :     0.045493
      dz2     :     0.002693  d :     0.029426
      dxz     :     0.006351
      dyz     :     0.002147
      dx2y2   :     0.009390
      dxy     :     0.008845



                      *****************************
                      * MAYER POPULATION ANALYSIS *
                      *****************************

  NA   - Mulliken gross atomic population
  ZA   - Total nuclear charge
  QA   - Mulliken gross atomic charge
  VA   - Mayer's total valence
  BVA  - Mayer's bonded valence
  FA   - Mayer's free valence

  ATOM       NA         ZA         QA         VA         BVA        FA
  0 C      6.1774     6.0000    -0.1774     3.9346     3.9346     0.0000
  1 C      6.1774     6.0000    -0.1774     3.9346     3.9346     0.0000
  2 C      6.1773     6.0000    -0.1773     3.9346     3.9346     0.0000
  3 C      6.1774     6.0000    -0.1774     3.9346     3.9346     0.0000
  4 C      6.1774     6.0000    -0.1774     3.9346     3.9346     0.0000
  5 C      6.1773     6.0000    -0.1773     3.9346     3.9346     0.0000
  6 H      0.8227     1.0000     0.1773     0.9816     0.9816     0.0000
  7 H      0.8226     1.0000     0.1774     0.9816     0.9816    -0.0000
  8 H      0.8227     1.0000     0.1773     0.9816     0.9816     0.0000
  9 H      0.8227     1.0000     0.1773     0.9816     0.9816     0.0000
 10 H      0.8226     1.0000     0.1774     0.9816     0.9816     0.0000
 11 H      0.8227     1.0000     0.1773     0.9816     0.9816    -0.0000

  Mayer bond orders larger than 0.100000
B(  0-C ,  1-C ) :   1.4212 B(  0-C ,  5-C ) :   1.4213 B(  0-C , 11-H ) :   0.9370 
B(  1-C ,  2-C ) :   1.4213 B(  1-C ,  6-H ) :   0.9370 B(  2-C ,  3-C ) :   1.4213 
B(  2-C ,  7-H ) :   0.9370 B(  3-C ,  4-C ) :   1.4212 B(  3-C ,  8-H ) :   0.9370 
B(  4-C ,  5-C ) :   1.4213 B(  4-C ,  9-H ) :   0.9370 B(  5-C , 10-H ) :   0.9370 


-------
TIMINGS
-------

Total SCF time: 0 days 0 hours 0 min 3 sec 

Total time                  ....       3.256 sec
Sum of individual times     ....       3.217 sec  ( 98.8%)

SCF preparation             ....       0.596 sec  ( 18.3%)
Fock matrix formation       ....       1.551 sec  ( 47.6%)
  Startup                   ....       0.053 sec  (  3.4% of F)
  Split-RI-J                ....       0.615 sec  ( 39.6% of F)
  XC integration            ....       0.739 sec  ( 47.6% of F)
    XC Preparation          ....       0.000 sec  (  0.0% of XC)
    Basis function eval.    ....       0.094 sec  ( 12.8% of XC)
    Density eval.           ....       0.229 sec  ( 31.1% of XC)
    XC-Functional eval.     ....       0.008 sec  (  1.0% of XC)
    XC-Potential eval.      ....       0.180 sec  ( 24.3% of XC)
Diagonalization             ....       0.000 sec  (  0.0%)
Density matrix formation    ....       0.107 sec  (  3.3%)
Total Energy calculation    ....       0.055 sec  (  1.7%)
Population analysis         ....       0.057 sec  (  1.8%)
Orbital Transformation      ....       0.112 sec  (  3.4%)
Orbital Orthonormalization  ....       0.000 sec  (  0.0%)
DIIS solution               ....       0.495 sec  ( 15.2%)
SOSCF solution              ....       0.243 sec  (  7.5%)
Finished LeanSCF after   3.3 sec

Maximum memory used throughout the entire LEANSCF-calculation: 17.7 MB

-------------------------   --------------------
FINAL SINGLE POINT ENERGY      -230.182949057628
-------------------------   --------------------



           ************************************************************
           *        Program running with 30 parallel MPI-processes    *
           *              working on a common directory               *
           ************************************************************
------------------------------------------------------------------------------
                         ORCA SCF GRADIENT CALCULATION
------------------------------------------------------------------------------

Nuc. rep. gradient        (SHARK) ... done (  0.0 sec)
HCore & Overlap gradient  (SHARK) ... done (  0.0 sec)
Split-RIJ-J gradient      (SHARK) ... done (  0.2 sec)
XC gradient                       ... done (  0.2 sec)

------------------
CARTESIAN GRADIENT
------------------

   1   C   :   -0.007204920    0.004122352    0.000000001
   2   C   :   -0.007204921   -0.004122355   -0.000000000
   3   C   :    0.000000000   -0.008278575    0.000000000
   4   C   :    0.007204921   -0.004122354   -0.000000000
   5   C   :    0.007204920    0.004122354   -0.000000000
   6   C   :    0.000000001    0.008278575    0.000000000
   7   H   :    0.008587978    0.004964118   -0.000000000
   8   H   :   -0.000000000    0.009913859   -0.000000000
   9   H   :   -0.008587978    0.004964117   -0.000000000
  10   H   :   -0.008587977   -0.004964116    0.000000000
  11   H   :    0.000000001   -0.009913858   -0.000000000
  12   H   :    0.008587977   -0.004964116   -0.000000000

Difference to translation invariance:
           :   -0.0000000000    0.0000000000    0.0000000000

Difference to rotation invariance:
           :    0.0000000007    0.0000000007   -0.0000000009

Norm of the Cartesian gradient     ...    0.0316676610
RMS gradient                       ...    0.0052779435
MAX gradient                       ...    0.0099138587

-------
TIMINGS
-------

Total SCF gradient time     ....        0.484 sec

Densities                   ....       0.002 sec  (  0.4%)
One electron gradient       ....       0.042 sec  (  8.7%)
RI-J Coulomb gradient       ....       0.248 sec  ( 51.2%)
XC gradient                 ....       0.192 sec  ( 39.6%)

Maximum memory used throughout the entire SCFGRAD-calculation: 21.4 MB
------------------------------------------------------------------------------
                         ORCA GEOMETRY RELAXATION STEP
------------------------------------------------------------------------------

Reading the OPT-File                    .... done
Getting information on internals        .... done
Copying old internal coords+grads       .... done
Making the new internal coordinates     .... (2022 redundants) done
Validating the new internal coordinates .... (2022 redundants) done
Calculating the B-matrix                .... done
Calculating the G,G- and P matrices     .... done
Transforming gradient to internals      .... done
Projecting the internal gradient        .... done
Number of atoms                         ....  12
Number of internal coordinates          ....  54
Current Energy                          ....  -230.182949058 Eh
Current gradient norm                   ....     0.031667661 Eh/bohr
Maximum allowed component of the step   ....  0.300
Current trust radius                    ....  0.300
Evaluating the initial hessian          ....  (Almloef) done
Projecting the Hessian                  .... done
Forming the augmented Hessian           .... done
Diagonalizing the augmented Hessian     .... done
Last element of RFO vector              ....  0.997907616
Lowest eigenvalues of augmented Hessian:
 -0.001591464  0.028280291  0.028280291  0.028280336  0.028280336
Length of the computed step             ....  0.064791506
The final length of the internal step   ....  0.064791506
Converting the step to Cartesian space:
 Initial RMS(Int)=    0.0088170072
Transforming coordinates:
 Iter   0:  RMS(Cart)=    0.0118307609 RMS(Int)=    2.0944136602
done
Storing new coordinates                 .... done

                                .--------------------.
          ----------------------|Geometry convergence|-------------------------
          Item                value                   Tolerance       Converged
          ---------------------------------------------------------------------
          RMS gradient        0.0033499185            0.0000100000      NO
          MAX gradient        0.0099194658            0.0001000000      NO
          RMS step            0.0088170072            0.0000100000      NO
          MAX step            0.0263337819            0.0001000000      NO
          ........................................................
          Max(Bonds)      0.0139      Max(Angles)    0.00
          Max(Dihed)        0.00      Max(Improp)    0.00
          ---------------------------------------------------------------------

The optimization has not yet converged - more geometry cycles are needed


    ---------------------------------------------------------------------------
                         Redundant Internal Coordinates
                            (Angstroem and degrees)

        Definition                    Value    dE/dq     Step     New-Value
    ----------------------------------------------------------------------------
     1. B(C   1,C   0)                1.3843 -0.001659  0.0014    1.3856   
     2. B(C   2,C   1)                1.3843 -0.001607  0.0013    1.3856   
     3. B(C   3,C   2)                1.3843 -0.001607  0.0013    1.3856   
     4. B(C   4,C   3)                1.3843 -0.001659  0.0014    1.3856   
     5. B(C   5,C   4)                1.3843 -0.001607  0.0013    1.3856   
     6. B(C   5,C   0)                1.3843 -0.001607  0.0013    1.3856   
     7. B(H   6,C   1)                1.0789 -0.009919  0.0139    1.0928   
     8. B(H   7,C   2)                1.0789 -0.009914  0.0139    1.0928   
     9. B(H   8,C   3)                1.0789 -0.009919  0.0139    1.0928   
    10. B(H   9,C   4)                1.0789 -0.009919  0.0139    1.0928   
    11. B(H  10,C   5)                1.0789 -0.009914  0.0139    1.0928   
    12. B(H  11,C   0)                1.0789 -0.009919  0.0139    1.0928   
    13. A(C   1,C   0,H  11)          120.00 -0.000001    0.00    120.00   
    14. A(C   5,C   0,H  11)          120.00  0.000009   -0.00    120.00   
    15. A(C   1,C   0,C   5)          120.00 -0.000008    0.00    120.00   
    16. A(C   0,C   1,C   2)          120.00 -0.000008    0.00    120.00   
    17. A(C   2,C   1,H   6)          120.00  0.000009   -0.00    120.00   
    18. A(C   0,C   1,H   6)          120.00 -0.000001    0.00    120.00   
    19. A(C   3,C   2,H   7)          120.00 -0.000008    0.00    120.00   
    20. A(C   1,C   2,H   7)          120.00 -0.000008    0.00    120.00   
    21. A(C   1,C   2,C   3)          120.00  0.000017   -0.00    120.00   
    22. A(C   2,C   3,C   4)          120.00 -0.000008    0.00    120.00   
    23. A(C   4,C   3,H   8)          120.00 -0.000001    0.00    120.00   
    24. A(C   2,C   3,H   8)          120.00  0.000009   -0.00    120.00   
    25. A(C   5,C   4,H   9)          120.00  0.000009   -0.00    120.00   
    26. A(C   3,C   4,H   9)          120.00 -0.000001    0.00    120.00   
    27. A(C   3,C   4,C   5)          120.00 -0.000008    0.00    120.00   
    28. A(C   0,C   5,H  10)          120.00 -0.000008    0.00    120.00   
    29. A(C   0,C   5,C   4)          120.00  0.000017   -0.00    120.00   
    30. A(C   4,C   5,H  10)          120.00 -0.000008    0.00    120.00   
    31. D(H   6,C   1,C   0,C   5)    180.00  0.000000   -0.00    180.00   
    32. D(H   6,C   1,C   0,H  11)      0.00 -0.000000    0.00      0.00   
    33. D(C   2,C   1,C   0,H  11)    180.00 -0.000000    0.00    180.00   
    34. D(C   2,C   1,C   0,C   5)      0.00  0.000000   -0.00     -0.00   
    35. D(H   7,C   2,C   1,C   0)    180.00  0.000000   -0.00    180.00   
    36. D(C   3,C   2,C   1,C   0)      0.00 -0.000000    0.00      0.00   
    37. D(C   3,C   2,C   1,H   6)    180.00 -0.000000    0.00    180.00   
    38. D(H   7,C   2,C   1,H   6)      0.00  0.000000   -0.00     -0.00   
    39. D(H   8,C   3,C   2,H   7)      0.00 -0.000000    0.00      0.00   
    40. D(H   8,C   3,C   2,C   1)    180.00  0.000000   -0.00    180.00   
    41. D(C   4,C   3,C   2,H   7)    180.00 -0.000000    0.00    180.00   
    42. D(C   4,C   3,C   2,C   1)      0.00  0.000000   -0.00     -0.00   
    43. D(H   9,C   4,C   3,C   2)    180.00 -0.000000    0.00    180.00   
    44. D(C   5,C   4,C   3,H   8)    180.00 -0.000000    0.00    180.00   
    45. D(C   5,C   4,C   3,C   2)      0.00  0.000000   -0.00     -0.00   
    46. D(H   9,C   4,C   3,H   8)      0.00 -0.000000    0.00      0.00   
    47. D(H  10,C   5,C   4,H   9)      0.00  0.000000   -0.00     -0.00   
    48. D(C   0,C   5,C   4,H   9)    180.00  0.000000   -0.00    180.00   
    49. D(C   0,C   5,C   4,C   3)      0.00 -0.000000    0.00      0.00   
    50. D(H  10,C   5,C   0,H  11)      0.00  0.000000   -0.00     -0.00   
    51. D(H  10,C   5,C   0,C   1)    180.00 -0.000000    0.00    180.00   
    52. D(H  10,C   5,C   4,C   3)    180.00  0.000000   -0.00    180.00   
    53. D(C   4,C   5,C   0,H  11)    180.00  0.000000   -0.00    180.00   
    54. D(C   4,C   5,C   0,C   1)      0.00 -0.000000    0.00      0.00   
    ----------------------------------------------------------------------------

Geometry step timings:
Preparation and reading OPT file:      0.001 s (12.167 %)
Internal coordinates            :      0.000 s ( 1.380 %)
B/P matrices and projection     :      0.001 s (21.389 %)
Hessian update/contruction      :      0.001 s (12.259 %)
Making the step                 :      0.001 s (17.456 %)
Converting the step to Cartesian:      0.000 s ( 2.599 %)
Storing new data                :      0.000 s ( 1.587 %)
Checking convergence            :      0.000 s ( 0.092 %)
Final printing                  :      0.001 s (30.888 %)
Total time                      :      0.004 s

Time for energy+gradient        :      7.828 s
Time for complete geometry iter :      8.758 s

         *************************************************************
         *                GEOMETRY OPTIMIZATION CYCLE   2            *
         *************************************************************
---------------------------------
CARTESIAN COORDINATES (ANGSTROEM)
---------------------------------
  C     -1.199939    0.692815   -0.000000
  C     -1.199939   -0.692815   -0.000000
  C      0.000000   -1.385629   -0.000000
  C      1.199939   -0.692815   -0.000000
  C      1.199939    0.692815   -0.000000
  C     -0.000000    1.385629   -0.000000
  H     -2.146358   -1.239236    0.000000
  H     -0.000000   -2.478455    0.000000
  H      2.146358   -1.239236    0.000000
  H      2.146358    1.239236    0.000000
  H     -0.000000    2.478455    0.000000
  H     -2.146358    1.239236    0.000000

----------------------------
CARTESIAN COORDINATES (A.U.)
----------------------------
  NO LB      ZA    FRAG     MASS         X           Y           Z
   0 C     6.0000    0    12.011   -2.267556    1.309231   -0.000000
   1 C     6.0000    0    12.011   -2.267556   -1.309231   -0.000000
   2 C     6.0000    0    12.011    0.000000   -2.618460   -0.000000
   3 C     6.0000    0    12.011    2.267556   -1.309231   -0.000000
   4 C     6.0000    0    12.011    2.267556    1.309231   -0.000000
   5 C     6.0000    0    12.011   -0.000000    2.618460   -0.000000
   6 H     1.0000    0     1.008   -4.056028   -2.341816    0.000000
   7 H     1.0000    0     1.008   -0.000000   -4.683601    0.000000
   8 H     1.0000    0     1.008    4.056028   -2.341816    0.000000
   9 H     1.0000    0     1.008    4.056028    2.341816    0.000000
  10 H     1.0000    0     1.008   -0.000000    4.683601    0.000000
  11 H     1.0000    0     1.008   -4.056028    2.341816    0.000000

--------------------------------
INTERNAL COORDINATES (ANGSTROEM)
--------------------------------
 C      0   0   0     0.000000000000     0.00000000     0.00000000
 C      1   0   0     1.385629885597     0.00000000     0.00000000
 C      2   1   0     1.385584967010   120.00104898     0.00000000
 C      3   2   1     1.385584966643   119.99790215     0.00000000
 C      4   3   2     1.385629884724   120.00104885     0.00000000
 C      1   2   3     1.385584965797   120.00104888     0.00000000
 H      2   1   3     1.092832838188   120.00025944   180.00000000
 H      3   2   1     1.092825275375   120.00104895   180.00000000
 H      4   3   2     1.092832838271   119.99869183   179.99999915
 H      5   4   3     1.092832836363   120.00025920   180.00000000
 H      6   1   2     1.092825275001   120.00104880   180.00000000
 H      1   2   3     1.092832835900   120.00025940   180.00000000

---------------------------
INTERNAL COORDINATES (A.U.)
---------------------------
 C      0   0   0     0.000000000000     0.00000000     0.00000000
 C      1   0   0     2.618461006755     0.00000000     0.00000000
 C      2   1   0     2.618376122926   120.00104898     0.00000000
 C      3   2   1     2.618376122233   119.99790215     0.00000000
 C      4   3   2     2.618461005105   120.00104885     0.00000000
 C      1   2   3     2.618376120636   120.00104888     0.00000000
 H      2   1   3     2.065154774331   120.00025944   180.00000000
 H      3   2   1     2.065140482686   120.00104895   180.00000000
 H      4   3   2     2.065154774488   119.99869183   179.99999915
 H      5   4   3     2.065154770882   120.00025920   180.00000000
 H      6   1   2     2.065140481980   120.00104880   180.00000000
 H      1   2   3     2.065154770008   120.00025940   180.00000000



           ************************************************************
           *        Program running with 30 parallel MPI-processes    *
           *              working on a common directory               *
           ************************************************************
------------------------------------------------------------------------------
                   ___                                                        
                  /   \      - P O W E R E D   B Y -                         
                 /     \                                                     
                 |  |  |   _    _      __       _____    __    __             
                 |  |  |  | |  | |    /  \     |  _  \  |  |  /  |          
                  \  \/   | |  | |   /    \    | | | |  |  | /  /          
                 / \  \   | |__| |  /  /\  \   | |_| |  |  |/  /          
                |  |  |   |  __  | /  /__\  \  |    /   |      \           
                |  |  |   | |  | | |   __   |  |    \   |  |\   \          
                \     /   | |  | | |  |  |  |  | |\  \  |  | \   \       
                 \___/    |_|  |_| |__|  |__|  |_| \__\ |__|  \__/        
                                                                              
                      - O R C A' S   B I G   F R I E N D -                    
                                      &                                       
                       - I N T E G R A L  F E E D E R -                       
                                                                              
 v1 FN, 2020, v2 2021, v3 2022-2024                                           
------------------------------------------------------------------------------


----------------------
SHARK INTEGRAL PACKAGE
----------------------

Number of atoms                             ...     12
Number of basis functions                   ...    270
Number of shells                            ...    102
Maximum angular momentum                    ...      3
Integral batch strategy                     ... SHARK/LIBINT Hybrid
RI-J (if used) integral strategy            ... SPLIT-RIJ (Revised 2003 algorithm where possible)
Printlevel                                  ...      1
Contraction scheme used                     ... SEGMENTED contraction
Prescreening option                         ... SCHWARTZ
   Thresh                                   ... 1.000e-12
   Tcut                                     ... 1.000e-14
   Tpresel                                  ... 1.000e-14 
Coulomb Range Separation                    ... NOT USED
Exchange Range Separation                   ... NOT USED
Multipole approximations                    ... NOT USED
Finite Nucleus Model                        ... NOT USED
CABS basis                                  ... NOT available
Auxiliary Coulomb fitting basis             ... AVAILABLE
   # of basis functions in Aux-J            ...    360
   # of shells in Aux-J                     ...    120
   Maximum angular momentum in Aux-J        ...      4
Auxiliary J/K fitting basis                 ... NOT available
Auxiliary Correlation fitting basis         ... NOT available
Auxiliary 'external' fitting basis          ... NOT available

Checking pre-screening integrals            ... done (  0.0 sec) Dimension = 102
Check shell pair data                       ... done (  0.0 sec)
Shell pair information
Shell pair cut-off parameter TPreSel        ...   1.0e-14
Total number of shell pairs                 ...      5253
Shell pairs after pre-screening             ...      5046
Total number of primitive shell pairs       ...     14346
Primitive shell pairs kept                  ...     11319
          la=0 lb=0:   1095 shell pairs
          la=1 lb=0:   1386 shell pairs
          la=1 lb=1:    456 shell pairs
          la=2 lb=0:    822 shell pairs
          la=2 lb=1:    522 shell pairs
          la=2 lb=2:    168 shell pairs
          la=3 lb=0:    288 shell pairs
          la=3 lb=1:    180 shell pairs
          la=3 lb=2:    108 shell pairs
          la=3 lb=3:     21 shell pairs

Calculating one electron integrals          ... done (  0.0 sec)
Calculating RI/J V-Matrix + Cholesky decomp.... done (  0.0 sec)
Calculating Nuclear repulsion               ... done (  0.0 sec) ENN=    204.393847455521 Eh

Diagonalization of the overlap matrix:
Smallest eigenvalue                        ... 9.866e-06
Time for diagonalization                   ...    0.015 sec
Threshold for overlap eigenvalues          ... 1.000e-07
Number of eigenvalues below threshold      ... 0
Time for construction of square roots      ...    0.010 sec
Total time needed                          ...    0.027 sec

-------------------
DFT GRID GENERATION
-------------------

General Integration Accuracy     IntAcc      ... 4.388
Radial Grid Type                 RadialGrid  ... OptM3 with GC (2021)
Angular Grid (max. ang.)         AngularGrid ... 4 (Lebedev-302)
Angular grid pruning method      GridPruning ... 4 (adaptive)
Weight generation scheme         WeightScheme... mBecke (2022)
Basis function cutoff            BFCut       ... 1.0000e-12
Integration weight cutoff        WCut        ... 1.0000e-14
Partially contracted basis set               ... off
Rotationally invariant grid construction     ... off
Angular grids for H and He will be reduced by one unit

Total number of grid points                  ...    55510
Total number of batches                      ...      874
Average number of points per batch           ...       63
Average number of grid points per atom       ...     4626
Initializing property integral containers    ... done (  0.0 sec)

SHARK setup successfully completed in   0.7 seconds

Maximum memory used throughout the entire STARTUP-calculation: 19.8 MB


           ************************************************************
           *        Program running with 30 parallel MPI-processes    *
           *              working on a common directory               *
           ************************************************************
Occupation numbers will be reassigned to an Aufbau configuration
             **** ENERGY FILE WAS UPDATED (C6H6_Freq-LDA.en.tmp) ****
Finished Guess after   0.6 sec
Maximum memory used throughout the entire GUESS-calculation: 14.7 MB


           ************************************************************
           *        Program running with 30 parallel MPI-processes    *
           *              working on a common directory               *
           ************************************************************
----------------------------------------D-I-I-S--------------------------------------------
Iteration    Energy (Eh)           Delta-E    RMSDP     MaxDP     DIISErr   Damp  Time(sec)
-------------------------------------------------------------------------------------------
               ***  Starting incremental Fock matrix formation  ***
    1    -230.1835690707035553     0.00e+00  5.19e-05  9.86e-04  4.68e-03  0.700   0.2
    2    -230.1836392285080990    -7.02e-05  4.09e-05  7.98e-04  3.39e-03  0.700   0.2
                               ***Turning on AO-DIIS***
                              *** Initializing SOSCF ***
---------------------------------------S-O-S-C-F--------------------------------------
Iteration    Energy (Eh)           Delta-E    RMSDP     MaxDP     MaxGrad    Time(sec)
--------------------------------------------------------------------------------------
    3    -230.1836838238828307    -4.46e-05  1.14e-04  2.00e-03  2.29e-03     0.3
               *** Restarting incremental Fock matrix formation ***
    4    -230.1837764180924353    -9.26e-05  1.51e-05  3.44e-04  2.11e-04     0.2
    5    -230.1837752180559562     1.20e-06  8.48e-06  1.69e-04  3.09e-04     0.2
    6    -230.1837776273262932    -2.41e-06  1.01e-06  2.08e-05  1.09e-05     0.2
    7    -230.1837776323569926    -5.03e-09  2.49e-07  7.80e-06  4.36e-06     0.2
    8    -230.1837776329853966    -6.28e-10  7.39e-08  1.50e-06  1.19e-06     0.2
                 **** Energy Check signals convergence ****

               *****************************************************
               *                     SUCCESS                       *
               *           SCF CONVERGED AFTER   8 CYCLES          *
               *****************************************************

             **** ENERGY FILE WAS UPDATED (C6H6_Freq-LDA.en.tmp) ****

----------------
TOTAL SCF ENERGY
----------------

Total Energy       :       -230.18377763298540 Eh           -6263.61903 eV

Components:
Nuclear Repulsion  :        204.39384745552101 Eh            5561.83935 eV
Electronic Energy  :       -434.57762508850641 Eh          -11825.45837 eV
One Electron Energy:       -716.06794743937940 Eh          -19485.19946 eV
[...]
     29      -0.000015  -0.000003   0.000003   0.000001   0.000001  -0.000001
     30       0.000010   0.552979  -0.000233   0.405691  -0.575271   0.000174
     31      -0.301908   0.000050   0.115368   0.000000  -0.000003  -0.008967
     32       0.000015   0.000001  -0.000003   0.000001   0.000000  -0.000000
     33       0.259958   0.049752  -0.288549  -0.204306   0.136044  -0.253118
     34      -0.153271   0.286666  -0.384575  -0.354335   0.252713  -0.428776
     35      -0.000013   0.000000   0.000003   0.000001  -0.000001   0.000002
                 24         25         26         27         28         29    
      0      -0.029912   0.184515   0.117555  -0.039996  -0.215537  -0.090842
      1      -0.052425   0.318507   0.095684   0.117880  -0.091993  -0.319054
      2       0.000000  -0.000000  -0.000000   0.000000  -0.000000   0.000000
      3       0.029912   0.184515  -0.117554  -0.040000   0.215517  -0.090887
      4      -0.052426  -0.318507   0.095688  -0.117876  -0.091925   0.319073
      5      -0.000000   0.000000  -0.000000  -0.000000  -0.000000  -0.000000
      6       0.061156  -0.369447  -0.000002   0.162806  -0.373460   0.000040
      7       0.000000   0.000000  -0.108491  -0.000002  -0.000017  -0.161501
      8      -0.000000   0.000000   0.000000  -0.000000   0.000000   0.000000
      9       0.029911   0.184515   0.117555  -0.039997   0.215537   0.090842
     10       0.052425   0.318507   0.095684   0.117879   0.091994   0.319054
     11       0.000000  -0.000000   0.000000   0.000000  -0.000000   0.000000
     12      -0.029911   0.184514  -0.117554  -0.040000  -0.215518   0.090887
     13       0.052425  -0.318506   0.095688  -0.117877   0.091925  -0.319074
     14       0.000000  -0.000000   0.000000  -0.000000  -0.000000  -0.000000
     15      -0.061155  -0.369447  -0.000003   0.162806   0.373461  -0.000039
     16       0.000000  -0.000000  -0.108491  -0.000002   0.000017   0.161501
     17       0.000000  -0.000000  -0.000000   0.000000   0.000000   0.000000
     18      -0.202189  -0.086406   0.171260  -0.229556   0.043538   0.238143
     19       0.349579   0.151630  -0.427950   0.171366   0.239857  -0.232021
     20      -0.000001  -0.000000   0.000001   0.000000   0.000000   0.000001
     21      -0.403486   0.177785   0.000007  -0.527609   0.363091  -0.000039
     22       0.000000   0.000000  -0.131681  -0.000002  -0.000019  -0.180905
     23       0.000001  -0.000001  -0.000000   0.000000  -0.000000  -0.000001
     24      -0.202189  -0.086409  -0.171255  -0.229561   0.043487  -0.238153
     25      -0.349579  -0.151635  -0.427949  -0.171379  -0.239908  -0.231973
     26      -0.000001   0.000001  -0.000001  -0.000000   0.000000   0.000000
     27       0.202189  -0.086408   0.171262  -0.229557  -0.043538  -0.238144
     28      -0.349580   0.151632  -0.427954   0.171369  -0.239858   0.232023
     29      -0.000000   0.000001  -0.000000  -0.000000  -0.000000  -0.000000
     30       0.403484   0.177784   0.000009  -0.527610  -0.363094   0.000038
     31       0.000000  -0.000000  -0.131681  -0.000002   0.000019   0.180905
     32      -0.000001  -0.000000   0.000000   0.000000   0.000000  -0.000000
     33       0.202190  -0.086406  -0.171253  -0.229562  -0.043488   0.238153
     34       0.349582  -0.151630  -0.427946  -0.171381   0.239906   0.231972
     35      -0.000000   0.000000   0.000000  -0.000000  -0.000000  -0.000000
                 30         31         32         33         34         35    
      0      -0.028565  -0.019642   0.037317  -0.024918  -0.037705   0.032894
      1       0.016610   0.013338  -0.020386   0.010801   0.023773  -0.019013
      2      -0.000000   0.000000  -0.000000  -0.000000  -0.000000  -0.000000
      3       0.028565  -0.019646  -0.037317   0.024855  -0.037745   0.032895
      4       0.016610  -0.013340  -0.020386   0.010761  -0.023790   0.019013
      5       0.000000  -0.000000  -0.000000   0.000000  -0.000000   0.000000
      6       0.000000   0.000000   0.002001   0.000003   0.003544  -0.000000
      7      -0.035678   0.049922  -0.000003   0.050257  -0.000042   0.036355
      8       0.000000   0.000000   0.000000   0.000000   0.000000   0.000000
      9      -0.028567   0.019639  -0.037321  -0.024919  -0.037703  -0.032893
     10       0.016611  -0.013336   0.020388   0.010801   0.023772   0.019012
     11      -0.000000   0.000000   0.000000   0.000000   0.000000  -0.000000
     12       0.028563   0.019646   0.037313   0.024855  -0.037749  -0.032895
     13       0.016609   0.013340   0.020384   0.010761  -0.023793  -0.019013
     14       0.000000   0.000000   0.000000   0.000000   0.000000  -0.000000
     15       0.000000  -0.000000  -0.002001   0.000003   0.003544   0.000000
     16      -0.035674  -0.049925   0.000003   0.050256  -0.000041  -0.036355
     17       0.000000   0.000000   0.000000  -0.000000  -0.000000  -0.000000
     18      -0.343647   0.240502   0.431966  -0.262369   0.430511  -0.357610
     19      -0.198444   0.140634   0.248170  -0.147301   0.250769  -0.206388
     20      -0.000000   0.000000  -0.000000  -0.000000   0.000000  -0.000000
     21      -0.000000  -0.000000  -0.002083  -0.000003  -0.003805   0.000000
     22       0.426172  -0.584083   0.000035  -0.560747   0.000472  -0.393502
     23       0.000000  -0.000000   0.000000  -0.000000  -0.000000  -0.000000
     24       0.343663  -0.240422   0.432012   0.263090   0.430075   0.357588
     25      -0.198453   0.140587  -0.248197  -0.147721  -0.250524  -0.206375
     26      -0.000000   0.000000  -0.000000  -0.000000  -0.000000  -0.000000
     27      -0.343626  -0.240511  -0.431928  -0.262366   0.430566   0.357608
     28      -0.198432  -0.140639  -0.248147  -0.147299   0.250800   0.206386
     29      -0.000000  -0.000000  -0.000000  -0.000000   0.000000   0.000000
     30       0.000000   0.000000   0.002083  -0.000003  -0.003805  -0.000000
     31       0.426125   0.584123  -0.000037  -0.560738   0.000454   0.393506
     32       0.000000  -0.000000   0.000000   0.000000  -0.000000   0.000000
     33       0.343640   0.240467  -0.431975   0.263089   0.430096  -0.357601
     34      -0.198440  -0.140614   0.248175  -0.147721  -0.250537   0.206382
     35       0.000000  -0.000000  -0.000000  -0.000000   0.000000   0.000000


-----------
IR SPECTRUM
-----------

 Mode   freq       eps      Int      T**2         TX        TY        TZ
       cm**-1   L/(mol*cm) km/mol    a.u.
----------------------------------------------------------------------------
  6:    395.61   0.000000    0.00  0.000000  (-0.000000  0.000000 -0.000000)
  7:    395.89   0.000000    0.00  0.000000  (-0.000000 -0.000000 -0.000015)
  8:    602.81   0.000000    0.00  0.000000  (-0.000000 -0.000000 -0.000001)
  9:    603.38   0.000000    0.00  0.000000  ( 0.000000 -0.000000 -0.000000)
 10:    659.57   0.022756  115.00  0.010767  ( 0.000000  0.000000  0.103763)
 11:    718.27   0.000000    0.00  0.000000  (-0.000000 -0.000000 -0.000000)
 12:    832.50   0.000000    0.00  0.000000  (-0.000000 -0.000000  0.000000)
 13:    832.57   0.000000    0.00  0.000000  (-0.000000 -0.000000  0.000001)
 14:    951.18   0.000000    0.00  0.000000  (-0.000000 -0.000000  0.000000)
 15:    951.40   0.000000    0.00  0.000000  ( 0.000000  0.000000 -0.000015)
 16:    986.20   0.000000    0.00  0.000000  (-0.000000 -0.000000 -0.000000)
 17:    998.09   0.000001    0.01  0.000000  ( 0.000000  0.000628 -0.000000)
 18:   1020.60   0.000000    0.00  0.000000  ( 0.000000 -0.000000 -0.000000)
 19:   1040.77   0.001485    7.50  0.000445  ( 0.021099 -0.000009 -0.000000)
 20:   1041.87   0.001416    7.15  0.000424  (-0.000009 -0.020592  0.000000)
 21:   1125.51   0.000000    0.00  0.000000  ( 0.000070 -0.000000  0.000000)
 22:   1151.97   0.000000    0.00  0.000000  (-0.000000 -0.000000 -0.000000)
 23:   1152.46   0.000000    0.00  0.000000  (-0.000000 -0.000000  0.000000)
 24:   1317.35   0.000000    0.00  0.000000  (-0.000000  0.000000 -0.000000)
 25:   1392.77   0.000000    0.00  0.000000  ( 0.000214 -0.000000  0.000000)
 26:   1469.77   0.001894    9.57  0.000402  ( 0.000000 -0.020056 -0.000000)
 27:   1470.70   0.001865    9.42  0.000396  (-0.019891 -0.000000  0.000000)
 28:   1620.75   0.000000    0.00  0.000000  (-0.000000 -0.000000 -0.000000)
 29:   1621.67   0.000000    0.00  0.000000  ( 0.000000  0.000000 -0.000000)
 30:   3084.92   0.000003    0.01  0.000000  (-0.000000 -0.000522 -0.000000)
 31:   3093.50   0.000000    0.00  0.000000  (-0.000000 -0.000000 -0.000000)
 32:   3094.42   0.000000    0.00  0.000000  (-0.000001 -0.000000 -0.000000)
 33:   3107.80   0.003316   16.76  0.000333  (-0.000015  0.018248 -0.000000)
 34:   3108.56   0.003309   16.72  0.000332  (-0.018226 -0.000015  0.000000)
 35:   3116.63   0.000000    0.00  0.000000  ( 0.000000 -0.000000  0.000000)

* The epsilon (eps) is given for a Dirac delta lineshape.
** The dipole moment derivative (T) already includes vibrational overlap.

The first frequency considered to be a vibration is 6
The total number of vibrations considered is 30


--------------------------
THERMOCHEMISTRY AT 298.15K
--------------------------

Temperature         ...   298.15 K
Pressure            ...     1.00 atm
Total Mass          ...    78.11 AMU
Quasi RRHO          ...     True
Cut-Off Frequency   ...     1.00 cm^-1

Throughout the following assumptions are being made:
  (1) The electronic state is orbitally nondegenerate
  (2) There are no thermally accessible electronically excited states
  (3) Hindered rotations indicated by low frequency modes are not
      treated as such but are treated as vibrations and this may
      cause some error
  (4) All equations used are the standard statistical mechanics
      equations for an ideal gas
  (5) All vibrations are strictly harmonic

freq.     395.61  E(vib)   ...       0.20 
freq.     395.89  E(vib)   ...       0.20 
freq.     602.81  E(vib)   ...       0.10 
freq.     603.38  E(vib)   ...       0.10 
freq.     659.57  E(vib)   ...       0.08 
freq.     718.27  E(vib)   ...       0.07 
freq.     832.50  E(vib)   ...       0.04 
freq.     832.57  E(vib)   ...       0.04 
freq.     951.18  E(vib)   ...       0.03 
freq.     951.40  E(vib)   ...       0.03 
freq.     986.20  E(vib)   ...       0.02 
freq.     998.09  E(vib)   ...       0.02 
freq.    1020.60  E(vib)   ...       0.02 
freq.    1040.77  E(vib)   ...       0.02 
freq.    1041.87  E(vib)   ...       0.02 
freq.    1125.51  E(vib)   ...       0.01 
freq.    1151.97  E(vib)   ...       0.01 
freq.    1152.46  E(vib)   ...       0.01 
freq.    1317.35  E(vib)   ...       0.01 
freq.    1392.77  E(vib)   ...       0.00 
freq.    1469.77  E(vib)   ...       0.00 
freq.    1470.70  E(vib)   ...       0.00 
freq.    1620.75  E(vib)   ...       0.00 
freq.    1621.67  E(vib)   ...       0.00 
freq.    3084.92  E(vib)   ...       0.00 
freq.    3093.50  E(vib)   ...       0.00 
freq.    3094.42  E(vib)   ...       0.00 
freq.    3107.80  E(vib)   ...       0.00 
freq.    3108.56  E(vib)   ...       0.00 
freq.    3116.63  E(vib)   ...       0.00 

------------
INNER ENERGY
------------

The inner energy is: U= E(el) + E(ZPE) + E(vib) + E(rot) + E(trans)
    E(el)   - is the total energy from the electronic structure calculation
              = E(kin-el) + E(nuc-el) + E(el-el) + E(nuc-nuc)
    E(ZPE)  - the the zero temperature vibrational energy from the frequency calculation
    E(vib)  - the the finite temperature correction to E(ZPE) due to population
              of excited vibrational states
    E(rot)  - is the rotational thermal energy
    E(trans)- is the translational thermal energy

Summary of contributions to the inner energy U:
Electronic energy                ...   -230.18378015 Eh
Zero point energy                ...      0.09786893 Eh      61.41 kcal/mol
Thermal vibrational correction   ...      0.00167813 Eh       1.05 kcal/mol
Thermal rotational correction    ...      0.00141627 Eh       0.89 kcal/mol
Thermal translational correction ...      0.00141627 Eh       0.89 kcal/mol
-----------------------------------------------------------------------
Total thermal energy                   -230.08140055 Eh


Summary of corrections to the electronic energy:
(perhaps to be used in another calculation)
Total thermal correction                  0.00451068 Eh       2.83 kcal/mol
Non-thermal (ZPE) correction              0.09786893 Eh      61.41 kcal/mol
-----------------------------------------------------------------------
Total correction                          0.10237960 Eh      64.24 kcal/mol


--------
ENTHALPY
--------

The enthalpy is H = U + kB*T
                kB is Boltzmann's constant
Total thermal energy              ...   -230.08140055 Eh 
Thermal Enthalpy correction       ...      0.00094421 Eh       0.59 kcal/mol
-----------------------------------------------------------------------
Total Enthalpy                    ...   -230.08045634 Eh


Note: Rotational entropy computed according to Herzberg 
Infrared and Raman Spectra, Chapter V,1, Van Nostrand Reinhold, 1945 
Point Group:  D6h, Symmetry Number:  12  
Rotational constants in cm-1:     0.192072     0.192050     0.096030 

Vibrational entropy computed according to the QRRHO of S. Grimme
Chem.Eur.J. 2012 18 9955 using a reference frequency of 100.0 cm-1


-------
ENTROPY
-------

The entropy contributions are T*S = T*(S(el)+S(vib)+S(rot)+S(trans))
     S(el)   - electronic entropy
     S(vib)  - vibrational entropy
     S(rot)  - rotational entropy
     S(trans)- translational entropy
The entropies will be listed as multiplied by the temperature to get
units of energy

Electronic entropy                ...      0.00000000 Eh      0.00 kcal/mol
Vibrational entropy               ...      0.00226474 Eh      1.42 kcal/mol
Rotational entropy                ...      0.00982861 Eh      6.17 kcal/mol
Translational entropy             ...      0.01852142 Eh     11.62 kcal/mol
-----------------------------------------------------------------------
Final entropy term                ...      0.03061477 Eh     19.21 kcal/mol

In case the symmetry of your molecule has not been determined correctly
or in case you have a reason to use a different symmetry number we print 
out the resulting rotational entropy values for sn=1,12:

 non-linear molecules -----------------------------------
|  sn= 1 | S(rot)=       0.01217481 Eh      7.64 kcal/mol|
|  sn= 2 | S(rot)=       0.01152035 Eh      7.23 kcal/mol|
|  sn= 3 | S(rot)=       0.01113752 Eh      6.99 kcal/mol|
|  sn= 4 | S(rot)=       0.01086589 Eh      6.82 kcal/mol|
|  sn= 5 | S(rot)=       0.01065521 Eh      6.69 kcal/mol|
|  sn= 6 | S(rot)=       0.01048306 Eh      6.58 kcal/mol|
|  sn= 7 | S(rot)=       0.01033752 Eh      6.49 kcal/mol|
|  sn= 8 | S(rot)=       0.01021144 Eh      6.41 kcal/mol|
|  sn= 9 | S(rot)=       0.01010023 Eh      6.34 kcal/mol|
|  sn=10 | S(rot)=       0.01000075 Eh      6.28 kcal/mol|
|  sn=11 | S(rot)=       0.00991076 Eh      6.22 kcal/mol|
|  sn=12 | S(rot)=       0.00982861 Eh      6.17 kcal/mol|
 linear molecules ---------------------------------------
|  Dinfh | S(rot)=       0.00753811 Eh      4.73 kcal/mol|
|  Cinfv | S(rot)=       0.00819256 Eh      5.14 kcal/mol|
 --------------------------------------------------------


-------------------
GIBBS FREE ENERGY
-------------------

The Gibbs free energy is G = H - T*S

Total enthalpy                    ...   -230.08045634 Eh 
Total entropy correction          ...     -0.03061477 Eh    -19.21 kcal/mol
-----------------------------------------------------------------------
Final Gibbs free energy         ...   -230.11107111 Eh

For completeness - the Gibbs free energy minus the electronic energy
G-E(el)                           ...      0.07270904 Eh     45.63 kcal/mol



--------------------------------
SUGGESTED CITATIONS FOR THIS RUN
--------------------------------

Below you find a list of papers that are relevant to this ORCA run
We neither can nor want to force you to cite these papers, but we appreciate if you do
You receive ORCA, which is the product of decades of hard work by many enthusiastic individuals, for free
The only thing we kindly ask in return is that you cite our papers,
We deeply appreciate it, if you show your appreciation for ORCA by not just citing the generic ORCA reference.

Please note that relegating all ORCA citations to the supporting information does *not* help us.
SI sections are not indexed - citations you put there will not count into any citation statistics
But we need these citations in order to attract the funding resources that allow us to do what we are doing

Therefore, if you are a happy ORCA user, please consider citing a few of the papers listed below in the main body of your paper

In addition to the list printed below, the program has created the file C6H6_Freq-LDA.bibtex that contains the list in bibtex format
You can import this file easily into all common literature databanks and citation aid programs


List of essential papers. We consider these as the minimum necessary citations

  1. Neese,F.
     Software update: the ORCA program system, version 5.0
     WIRES Comput. Molec. Sci., 2022 12(1)e1606
     doi.org/10.1002/wcms.1606

List of papers to cite with high priority. The work reported in these papers was absolutely
necessary for this run to complete.
Our perspective: the developers of density functionals and basis sets usually get cited in chemistry papers
Good! But without the algorithms to do something with them, the functionals or basis sets would not do anything.
Hence, in our opinion, the algorithm design and method developments papers are equally worthy of getting cited

  1. Neese,F.
     An improvement of the resolution of the identity approximation for the formation of the Coulomb matrix
     J. Comp. Chem., 2003 24(14)1740-1747
     doi.org/10.1002/jcc.10318
  2. Bykov,D.; Petrenko,T.; Izsak,R.; Kossmann,S.; Becker,U.; Valeev,E.; Neese,F.
     Efficient implementation of the analytic second derivatives of Hartree-Fock and hybrid DFT energies: a detailed analysis of different approximations
     Molec. Phys., 2015 113 1961-1977
     doi.org/10.1080/00268976.2015.1025114
  3. Neese,F.
     The SHARK Integral Generation and Digestion System
     J. Comp. Chem., 2022  1-16
     doi.org/10.1002/jcc.26942

List of suggested additional citations. These are papers that are important in the 'surrounding' of 
of this run, or papers that preceded the highly important papers. If you like your results we are grateful for a citation.

  1. Neese,F.
     The ORCA program system
     WIRES Comput. Molec. Sci., 2012 2(1)73-78
     doi.org/10.1002/wcms.81
  2. Neese,F.
     Software update: the ORCA program system, version 4.0
     WIRES Comput. Molec. Sci., 2018 8(1)1-6
     doi.org/10.1002/wcms.1327
  3. Neese,F.; Wennmohs,F.; Becker,U.; Riplinger,C.
     The ORCA quantum chemistry program package
     J. Chem. Phys., 2020 152 Art. No. L224108
     doi.org/10.1063/5.0004608

List of optional additional citations

  1. Neese,F.
     Approximate second-order SCF convergence for spin unrestricted wavefunctions
     Chem. Phys. Lett., 2000 325(1-3)93-98
     doi.org/10.1016/s0009-2614(00)00662-x

Timings for individual modules:

Sum of individual times          ...      106.019 sec (=   1.767 min)
Startup calculation              ...        9.072 sec (=   0.151 min)   8.6 %
SCF iterations                   ...       20.148 sec (=   0.336 min)  19.0 %
Property calculations            ...        0.970 sec (=   0.016 min)   0.9 %
SCF Gradient evaluation          ...        7.219 sec (=   0.120 min)   6.8 %
Geometry relaxation              ...        0.023 sec (=   0.000 min)   0.0 %
Numerical frequency calculation  ...       68.587 sec (=   1.143 min)  64.7 %
                             ****ORCA TERMINATED NORMALLY****
TOTAL RUN TIME: 0 days 0 hours 1 minutes 44 seconds 823 msec
