
                                 *****************
                                 * O   R   C   A *
                                 *****************

                                            #,                                       
                                            ###                                      
                                            ####                                     
                                            #####                                    
                                            ######                                   
                                           ########,                                 
                                     ,,################,,,,,                         
                               ,,#################################,,                 
                          ,,##########################################,,             
                       ,#########################################, ''#####,          
                    ,#############################################,,   '####,        
                  ,##################################################,,,,####,       
                ,###########''''           ''''###############################       
              ,#####''   ,,,,##########,,,,          '''####'''          '####       
            ,##' ,,,,###########################,,,                        '##       
           ' ,,###''''                  '''############,,,                           
         ,,##''                                '''############,,,,        ,,,,,,###''
      ,#''                                            '''#######################'''  
     '                                                          ''''####''''         
             ,#######,   #######,   ,#######,      ##                                
            ,#'     '#,  ##    ##  ,#'     '#,    #''#        ,####,   ,####,        
            ##       ##  ##   ,#'  ##            #'  '#       #'       #'  '#        
            ##       ##  #######   ##           ,######,      #####,   #    #        
            '#,     ,#'  ##    ##  '#,     ,#' ,#      #,     #,   #   #,  ,#        
             '#######'   ##     ##  '#######'  #'      '#     '####' # '####'        



                #########################################################
                #                        -***-                          #
                #          Department of theory and spectroscopy        #
                #                                                       #
                #                      Frank Neese                      #
                #                                                       #
                #     Directorship, Architecture, Infrastructure        #
                #                    SHARK, DRIVERS                     #
                #        Core code/Algorithms in most modules           #
                #                                                       #
                #        Max Planck Institute fuer Kohlenforschung      #
                #                Kaiser Wilhelm Platz 1                 #
                #                 D-45470 Muelheim/Ruhr                 #
                #                      Germany                          #
                #                                                       #
                #                  All rights reserved                  #
                #                        -***-                          #
                #########################################################


                         Program Version 6.0.1  -  RELEASE   -


 With contributions from (in alphabetic order):
[Max-Planck-Institut fuer Kohlenforschung]                               
  Daniel Aravena         : Magnetic Suceptibility                        
  Michael Atanasov       : Ab Initio Ligand Field Theory (pilot matlab implementation)
  Alexander A. Auer      : GIAO ZORA, VPT2 properties, NMR spectrum      
  Ute Becker             : All parallelization in ORCA, NUMFREQ, NUMCALC 
  Giovanni Bistoni       : ED, misc. LED, open-shell LED, HFLD           
  Martin Brehm           : Molecular dynamics                            
  Dmytro Bykov           : pre 5.0 version of the SCF Hessian            
  Marcos Casanova-Páez   : Triplet and SCS-CIS(D). UHF-(DLPNO)-IP/EA/STEOM-CCSD. UHF-CVS-IP/STEOM-CCSD   
  Vijay G. Chilkuri      : MRCI spin determinant printing, contributions to CSF-ICE 
  Pauline Colinet        : FMM embedding                                 
  Dipayan Datta          : RHF DLPNO-CCSD density                        
  Achintya Kumar Dutta   : EOM-CC, STEOM-CC                              
  Nicolas Foglia         : Exact transition moments, OPA infrastructure, MCD improvements    
  Dmitry Ganyushin       : Spin-Orbit,Spin-Spin,Magnetic field MRCI      
  Miquel Garcia-Rates    : C-PCM and meta-GGA Hessian, CCSD/C-PCM, Gaussian charge scheme 
  Tiago L. C. Gouveia    : GS-ROHF, GS-ROCIS                             
  Yang Guo               : DLPNO-NEVPT2, F12-NEVPT2, CIM, IAO-localization        
  Andreas Hansen         : Spin unrestricted coupled pair/coupled cluster methods 
  Ingolf Harden          : AUTO-CI MPn and infrastructure                
  Benjamin Helmich-Paris : MC-RPA, TRAH-(SCF,CASSCF), AVAS, COSX integrals, SCF dyn. polar. 
  Lee Huntington         : MR-EOM, pCC                                   
  Robert Izsak           : Overlap fitted RIJCOSX, COSX-SCS-MP3, EOM     
  Riya Kayal             : Wick's Theorem for AUTO-CI, AUTO-CI UHF-CCSDT 
  Emily Kempfer          : AUTO-CI, RHF CISDT and CCSDT                  
  Christian Kollmar      : KDIIS, OOCD, Brueckner-CCSD(T), CCSD density, CASPT2, CASPT2-K, improved NEVPT2 
  Axel Koslowski         : Symmetry handling                             
  Simone Kossmann        : meta-GGA functionals, TD-DFT gradient, OOMP2, (MP2 Hessian; deprecated post 5.0) 
  Lucas Lang             : DCDCAS                                        
  Marvin Lechner         : AUTO-CI (C++ implementation), FIC-MRCC        
  Spencer Leger          : CASSCF response                               
  Dagmar Lenk            : GEPOL surface, SMD, ORCA-2-JSON               
  Dimitrios Liakos       : Extrapolation schemes; Compound Job, initial MDCI parallelization 
  Dimitrios Manganas     : Further ROCIS development; embedding schemes. LFT, Crystal Embedding 
  Dimitrios Pantazis     : SARC Basis sets                               
  Anastasios Papadopoulos: AUTO-CI, single reference methods and gradients 
  Taras Petrenko         : pre 6.0 DFT Hessian and TD-DFT gradient, (ASA, deprecated), ECA, 1-Electron XAS/XES, NRVS 
  Peter Pinski           : DLPNO-MP2, DLPNO-MP2 Gradient                 
  Christoph Reimann      : Effective Core Potentials                     
  Marius Retegan         : Local ZFS, SOC                                
  Christoph Riplinger    : Optimizer, TS searches, QM/MM, DLPNO-CCSD(T), (RO)-DLPNO pert. Triples 
  Michael Roemelt        : Original ROCIS implementation                 
  Masaaki Saitow         : Open-shell DLPNO-CCSD energy and density      
  Barbara Sandhoefer     : DKH picture change effects                    
  Kantharuban Sivalingam : CASSCF convergence/infrastructure, NEVPT2 and variants, FIC-MRCI 
  Bernardo de Souza      : ESD, SOC TD-DFT                               
  Georgi L. Stoychev     : AutoAux, RI-MP2 NMR, DLPNO-MP2 response, X2C  
  Van Anh Tran           : RI-MP2 g-tensors                              
  Willem Van den Heuvel  : Paramagnetic NMR                              
  Zikuan Wang            : NOTCH, Electric field optimization            
  Frank Wennmohs         : Technical directorship and infrastructure     
  Hang Xu                : AUTO-CI-Response properties                   
                                                                         
[FACCTs GmbH]                                                            
  Markus Bursch, Miquel Garcia-Rates, Christoph Riplinger, Bernardo de Souza, Georgi L. Stoychev 
                                                                 
  APM, Basis sets (HGBS, AHGBS, def-TZVP (Ac-Lr), def2-XVPD (La-Lu)), CI-OPT, improved COSX, DLPNO-Multilevel,           
  DOCKER, DRACO, updates on ESD, GOAT, IRC, LR-CPCM, MBIS, meta-GGA TD-DFT gradient, ML-optimized integration grids, 
  MM, NACMEs, nearIR, NEB, NEB-TS, NL-DFT gradient (VV10), 2- and 3-layer-ONIOM, interface openCOSMO-RS, QMMM,   
  Crystal-QMMM, SF, symmetry and pop. for TD-DFT, r2SCAN hybrids, SOLVATOR                                   
                                                                         
[Other institutions]                                                     
  V. Asgeirsson          : NEB                                           
  Christoph Bannwarth    : sTDA-DFT, sTD-DFT, PBEh-3c, B97-3c, D3        
  Sebastian Ehlert       : rSCAN, r2SCAN, r2SCAN-3c, D4, dhf basis sets  
  Marvin Friede          : D4 for Fr, Ra, Ac-Lr                          
  Lars Goerigk           : TD-DFT with DH, B97 family of functionals     
  Stefan Grimme          : VdW corrections, initial TS optimization, DFT functionals, gCP, sTDA/sTD-DF 
  Waldemar Hujo          : DFT-NL                                        
  H. Jonsson             : NEB                                           
  Holger Kruse           : gCP                                           
  Marcel Mueller         : wB97X-3c, vDZP basis set                      
  Hagen Neugebauer       : wr2SCAN                                       
  Tobias Risthaus        : range-separated hybrid DFT                    
  Lukas Wittmann         : regularized MP2, r2SCAN double-hybrids, wr2SCAN        
                                                                         
We gratefully acknowledge several colleagues who have allowed us to      
interface, adapt or use parts of their codes:                            
  Ed Valeev, F. Pavosevic, A. Kumar             : LibInt (2-el integral package), F12 methods 
  Garnet Chan, S. Sharma, J. Yang, R. Olivares  : DMRG                   
  Ulf Ekstrom                                   : XCFun DFT Library      
  Mihaly Kallay                                 : mrcc  (arbitrary order and MRCC methods)
  Frank Weinhold                                : gennbo (NPA and NBO analysis)           
  Simon Mueller                                 : openCOSMO-RS                            
  Christopher J. Cramer and Donald G. Truhlar   : smd solvation model                     
  S Lehtola, MJT Oliveira, MAL Marques          : LibXC Library                           
  Liviu Ungur et al                             : ANISO software                          


 Your calculation uses the libint2 library for the computation of 2-el integrals
 For citations please refer to: http://libint.valeyev.net

 Your ORCA version has been built with support for libXC version: 6.2.2
 For citations please refer to: https://libxc.gitlab.io

 This ORCA versions uses:
   CBLAS   interface :  Fast vector & matrix operations
   LAPACKE interface :  Fast linear algebra routines
   SCALAPACK package :  Parallel linear algebra routines
   Shared memory     :  Shared parallel matrices
   BLAS/LAPACK       :  OpenBLAS 0.3.27  USE64BITINT DYNAMIC_ARCH NO_AFFINITY Zen SINGLE_THREADED
        Core in use  :  Zen
   Copyright (c) 2011-2014, The OpenBLAS Project


NOTE: MaxCore=4000 MB was set to SCF,MP2,MDCI,CIPSI,MRCI and CIS
      => If you want to overwrite this, your respective input block should be placed after the MaxCore statement
Warning: RI is on but no J-basis has been assigned. Assigning Def2/J (nothing to worry about!)
================================================================================

----- Orbital basis set information -----
Your calculation utilizes the basis: def2-TZVPP
   F. Weigend and R. Ahlrichs, Phys. Chem. Chem. Phys. 7, 3297 (2005).

----- AuxJ basis set information -----
Your calculation utilizes the auxiliary basis: def2/J
   F. Weigend, Phys. Chem. Chem. Phys. 8, 1057 (2006).

================================================================================
                                        WARNINGS
                       Please study these warnings very carefully!
================================================================================


WARNING: Geometry Optimization
  ===> : Switching off AutoStart
         For restart on a previous wavefunction, please use MOREAD

================================================================================
                                       INPUT FILE
================================================================================
NAME = C6H6_Opt_Geom-HFS.inp
|  1> ! HFS def2-TZVPP Opt TightOpt VeryTightSCF
|  2> 
|  3> %scf
|  4>    MaxIter 400          # Máximo de iteraciones permitidas para el SCF
|  5> end
|  6> 
|  7> %geom
|  8>    TolRMSD 1.0e-5
|  9>    TolMAXD 1.0e-4
| 10>    TolRMSG 1.0e-5
| 11>    TolMAXG 1.0e-4
| 12> end
| 13> 
| 14> %pal
| 15>    nprocs 30
| 16> end
| 17> 
| 18> %MaxCore 4000            # Memoria máxima por núcleo (en MB)
| 19> 
| 20> * xyz 0 1
| 21> C      -1.19880240    0.69212860    0.00000000
| 22> C      -1.19880240   -0.69212860    0.00000000
| 23> C       0.00000000   -1.38425390    0.00000000
| 24> C       1.19880240   -0.69212860    0.00000000
| 25> C       1.19880240    0.69212860    0.00000000
| 26> C       0.00000000    1.38425390    0.00000000
| 27> H      -2.13315490   -1.23157780    0.00000000
| 28> H       0.00000000   -2.46315180    0.00000000
| 29> H       2.13315490   -1.23157780    0.00000000
| 30> H       2.13315490    1.23157780    0.00000000
| 31> H       0.00000000    2.46315180    0.00000000
| 32> H      -2.13315490    1.23157780    0.00000000
| 33> **                         ****END OF INPUT****
================================================================================

                       *****************************
                       * Geometry Optimization Run *
                       *****************************

Geometry optimization settings:
Update method            Update   .... BFGS
Choice of coordinates    CoordSys .... (2022) Redundant Internals
Initial Hessian          InHess   .... Almloef's Model
Max. no of cycles        MaxIter  .... 50

Convergence Tolerances:
Energy Change            TolE     ....  1.0000e-06 Eh
Max. Gradient            TolMAXG  ....  1.0000e-04 Eh/bohr
RMS Gradient             TolRMSG  ....  1.0000e-05 Eh/bohr
Max. Displacement        TolMAXD  ....  1.0000e-04 bohr
RMS Displacement         TolRMSD  ....  1.0000e-05 bohr
Strict Convergence                .... False

------------------------------------------------------------------------------
                        ORCA OPTIMIZATION COORDINATE SETUP
------------------------------------------------------------------------------

The optimization will be done in redundant internal coordinates (2022)
Making redundant internal coordinates   ...  (2022 redundants) done
Evaluating the initial hessian          ...  (Almloef) done
Evaluating the coordinates              ...  done
Calculating the B-matrix                .... done
Calculating the G-matrix                .... done
Diagonalizing the G-matrix              .... done
The first mode is                       ....   24
The number of degrees of freedom        ....   30

    -----------------------------------------------------------------
                    Redundant Internal Coordinates


    -----------------------------------------------------------------
         Definition                    Initial Value    Approx d2E/dq
    -----------------------------------------------------------------
      1. B(C   1,C   0)                  1.3843         0.638118   
      2. B(C   2,C   1)                  1.3843         0.638121   
      3. B(C   3,C   2)                  1.3843         0.638121   
      4. B(C   4,C   3)                  1.3843         0.638118   
      5. B(C   5,C   4)                  1.3843         0.638121   
      6. B(C   5,C   0)                  1.3843         0.638121   
      7. B(H   6,C   1)                  1.0789         0.375091   
      8. B(H   7,C   2)                  1.0789         0.375090   
      9. B(H   8,C   3)                  1.0789         0.375091   
     10. B(H   9,C   4)                  1.0789         0.375091   
     11. B(H  10,C   5)                  1.0789         0.375090   
     12. B(H  11,C   0)                  1.0789         0.375091   
     13. A(C   1,C   0,H  11)          120.0000         0.357099   
     14. A(C   5,C   0,H  11)          120.0001         0.357099   
     15. A(C   1,C   0,C   5)          119.9999         0.438595   
     16. A(C   0,C   1,C   2)          119.9999         0.438595   
     17. A(C   2,C   1,H   6)          120.0001         0.357099   
     18. A(C   0,C   1,H   6)          120.0000         0.357099   
     19. A(C   3,C   2,H   7)          119.9999         0.357099   
     20. A(C   1,C   2,H   7)          119.9999         0.357099   
     21. A(C   1,C   2,C   3)          120.0003         0.438595   
     22. A(C   2,C   3,C   4)          119.9999         0.438595   
     23. A(C   4,C   3,H   8)          120.0000         0.357099   
     24. A(C   2,C   3,H   8)          120.0001         0.357099   
     25. A(C   5,C   4,H   9)          120.0001         0.357099   
     26. A(C   3,C   4,H   9)          120.0000         0.357099   
     27. A(C   3,C   4,C   5)          119.9999         0.438595   
     28. A(C   0,C   5,H  10)          119.9999         0.357099   
     29. A(C   0,C   5,C   4)          120.0003         0.438595   
     30. A(C   4,C   5,H  10)          119.9999         0.357099   
     31. D(H   6,C   1,C   0,C   5)    180.0000         0.028280   
     32. D(H   6,C   1,C   0,H  11)      0.0000         0.028280   
     33. D(C   2,C   1,C   0,H  11)    180.0000         0.028280   
     34. D(C   2,C   1,C   0,C   5)      0.0000         0.028280   
     35. D(H   7,C   2,C   1,C   0)    180.0000         0.028280   
     36. D(C   3,C   2,C   1,C   0)      0.0000         0.028280   
     37. D(C   3,C   2,C   1,H   6)    180.0000         0.028280   
     38. D(H   7,C   2,C   1,H   6)      0.0000         0.028280   
     39. D(H   8,C   3,C   2,H   7)      0.0000         0.028280   
     40. D(H   8,C   3,C   2,C   1)    180.0000         0.028280   
     41. D(C   4,C   3,C   2,H   7)    180.0000         0.028280   
     42. D(C   4,C   3,C   2,C   1)      0.0000         0.028280   
     43. D(H   9,C   4,C   3,C   2)    180.0000         0.028280   
     44. D(C   5,C   4,C   3,H   8)    180.0000         0.028280   
     45. D(C   5,C   4,C   3,C   2)      0.0000         0.028280   
     46. D(H   9,C   4,C   3,H   8)      0.0000         0.028280   
     47. D(H  10,C   5,C   4,H   9)      0.0000         0.028280   
     48. D(C   0,C   5,C   4,H   9)    180.0000         0.028280   
     49. D(C   0,C   5,C   4,C   3)      0.0000         0.028280   
     50. D(H  10,C   5,C   0,H  11)      0.0000         0.028280   
     51. D(H  10,C   5,C   0,C   1)    180.0000         0.028280   
     52. D(H  10,C   5,C   4,C   3)    180.0000         0.028280   
     53. D(C   4,C   5,C   0,H  11)    180.0000         0.028280   
     54. D(C   4,C   5,C   0,C   1)      0.0000         0.028280   
    -----------------------------------------------------------------

Number of atoms                         .... 12
Number of degrees of freedom            .... 54


         *************************************************************
         *                GEOMETRY OPTIMIZATION CYCLE   1            *
         *************************************************************
---------------------------------
CARTESIAN COORDINATES (ANGSTROEM)
---------------------------------
  C     -1.198802    0.692129    0.000000
  C     -1.198802   -0.692129    0.000000
  C      0.000000   -1.384254    0.000000
  C      1.198802   -0.692129    0.000000
  C      1.198802    0.692129    0.000000
  C      0.000000    1.384254    0.000000
  H     -2.133155   -1.231578    0.000000
  H      0.000000   -2.463152    0.000000
  H      2.133155   -1.231578    0.000000
  H      2.133155    1.231578    0.000000
  H      0.000000    2.463152    0.000000
  H     -2.133155    1.231578    0.000000

----------------------------
CARTESIAN COORDINATES (A.U.)
----------------------------
  NO LB      ZA    FRAG     MASS         X           Y           Z
   0 C     6.0000    0    12.011   -2.265408    1.307934    0.000000
   1 C     6.0000    0    12.011   -2.265408   -1.307934    0.000000
   2 C     6.0000    0    12.011    0.000000   -2.615861    0.000000
   3 C     6.0000    0    12.011    2.265408   -1.307934    0.000000
   4 C     6.0000    0    12.011    2.265408    1.307934    0.000000
   5 C     6.0000    0    12.011    0.000000    2.615861    0.000000
   6 H     1.0000    0     1.008   -4.031079   -2.327345    0.000000
   7 H     1.0000    0     1.008    0.000000   -4.654682    0.000000
   8 H     1.0000    0     1.008    4.031079   -2.327345    0.000000
   9 H     1.0000    0     1.008    4.031079    2.327345    0.000000
  10 H     1.0000    0     1.008    0.000000    4.654682    0.000000
  11 H     1.0000    0     1.008   -4.031079    2.327345    0.000000

--------------------------------
INTERNAL COORDINATES (ANGSTROEM)
--------------------------------
 C      0   0   0     0.000000000000     0.00000000     0.00000000
 C      1   0   0     1.384257200000     0.00000000     0.00000000
 C      2   1   0     1.384255982521   119.99987137     0.00000000
 C      3   2   1     1.384255982521   120.00025725     0.00000000
 C      4   3   2     1.384257200000   119.99987137     0.00000000
 C      1   2   3     1.384255982521   119.99987137     0.00000000
 H      2   1   3     1.078897601090   120.00002450   180.00000000
 H      3   2   1     1.078897900000   119.99987137   180.00000085
 H      4   3   2     1.078897601090   120.00010413   180.00000000
 H      5   4   3     1.078897601090   120.00002450   180.00000000
 H      6   1   2     1.078897900000   119.99987137   180.00000085
 H      1   2   3     1.078897601090   120.00002450   180.00000000

---------------------------
INTERNAL COORDINATES (A.U.)
---------------------------
 C      0   0   0     0.000000000000     0.00000000     0.00000000
 C      1   0   0     2.615867006909     0.00000000     0.00000000
 C      2   1   0     2.615864706207   119.99987137     0.00000000
 C      3   2   1     2.615864706207   120.00025725     0.00000000
 C      4   3   2     2.615867006909   119.99987137     0.00000000
 C      1   2   3     2.615864706207   119.99987137     0.00000000
 H      2   1   3     2.038820992604   120.00002450   180.00000000
 H      3   2   1     2.038821557463   119.99987137   180.00000085
 H      4   3   2     2.038820992604   120.00010413   180.00000000
 H      5   4   3     2.038820992604   120.00002450   180.00000000
 H      6   1   2     2.038821557463   119.99987137   180.00000085
 H      1   2   3     2.038820992604   120.00002450   180.00000000

---------------------
BASIS SET INFORMATION
---------------------
There are 2 groups of distinct atoms

 Group   1 Type C   : 11s6p2d1f contracted to 5s3p2d1f pattern {62111/411/11/1}
 Group   2 Type H   : 5s2p1d contracted to 3s2p1d pattern {311/11/1}

Atom   0C    basis set group =>   1
Atom   1C    basis set group =>   1
Atom   2C    basis set group =>   1
Atom   3C    basis set group =>   1
Atom   4C    basis set group =>   1
Atom   5C    basis set group =>   1
Atom   6H    basis set group =>   2
Atom   7H    basis set group =>   2
Atom   8H    basis set group =>   2
Atom   9H    basis set group =>   2
Atom  10H    basis set group =>   2
Atom  11H    basis set group =>   2
---------------------------------
AUXILIARY/J BASIS SET INFORMATION
---------------------------------
There are 2 groups of distinct atoms

 Group   1 Type C   : 12s5p4d2f1g contracted to 6s4p3d1f1g pattern {711111/2111/211/2/1}
 Group   2 Type H   : 5s2p1d contracted to 3s1p1d pattern {311/2/1}

Atom   0C    basis set group =>   1
Atom   1C    basis set group =>   1
Atom   2C    basis set group =>   1
Atom   3C    basis set group =>   1
Atom   4C    basis set group =>   1
Atom   5C    basis set group =>   1
Atom   6H    basis set group =>   2
Atom   7H    basis set group =>   2
Atom   8H    basis set group =>   2
Atom   9H    basis set group =>   2
Atom  10H    basis set group =>   2
Atom  11H    basis set group =>   2


           ************************************************************
           *        Program running with 30 parallel MPI-processes    *
           *              working on a common directory               *
           ************************************************************
------------------------------------------------------------------------------
                             ORCA STARTUP CALCULATIONS
                           -- RI-GTO INTEGRALS CHOSEN --
------------------------------------------------------------------------------
------------------------------------------------------------------------------
                   ___                                                        
                  /   \      - P O W E R E D   B Y -                         
                 /     \                                                     
                 |  |  |   _    _      __       _____    __    __             
                 |  |  |  | |  | |    /  \     |  _  \  |  |  /  |          
                  \  \/   | |  | |   /    \    | | | |  |  | /  /          
                 / \  \   | |__| |  /  /\  \   | |_| |  |  |/  /          
                |  |  |   |  __  | /  /__\  \  |    /   |      \           
                |  |  |   | |  | | |   __   |  |    \   |  |\   \          
                \     /   | |  | | |  |  |  |  | |\  \  |  | \   \       
                 \___/    |_|  |_| |__|  |__|  |_| \__\ |__|  \__/        
                                                                              
                      - O R C A' S   B I G   F R I E N D -                    
                                      &                                       
                       - I N T E G R A L  F E E D E R -                       
                                                                              
 v1 FN, 2020, v2 2021, v3 2022-2024                                           
------------------------------------------------------------------------------


----------------------
SHARK INTEGRAL PACKAGE
----------------------

Number of atoms                             ...     12
Number of basis functions                   ...    270
Number of shells                            ...    102
Maximum angular momentum                    ...      3
Integral batch strategy                     ... SHARK/LIBINT Hybrid
RI-J (if used) integral strategy            ... SPLIT-RIJ (Revised 2003 algorithm where possible)
Printlevel                                  ...      1
Contraction scheme used                     ... SEGMENTED contraction
Prescreening option                         ... SCHWARTZ
   Thresh                                   ... 1.000e-12
   Tcut                                     ... 1.000e-14
   Tpresel                                  ... 1.000e-14 
Coulomb Range Separation                    ... NOT USED
Exchange Range Separation                   ... NOT USED
Multipole approximations                    ... NOT USED
Finite Nucleus Model                        ... NOT USED
CABS basis                                  ... NOT available
Auxiliary Coulomb fitting basis             ... AVAILABLE
   # of basis functions in Aux-J            ...    360
   # of shells in Aux-J                     ...    120
   Maximum angular momentum in Aux-J        ...      4
Auxiliary J/K fitting basis                 ... NOT available
Auxiliary Correlation fitting basis         ... NOT available
Auxiliary 'external' fitting basis          ... NOT available

Checking pre-screening integrals            ... done (  0.0 sec) Dimension = 102
Check shell pair data                       ... done (  0.0 sec)
Shell pair information
Shell pair cut-off parameter TPreSel        ...   1.0e-14
Total number of shell pairs                 ...      5253
Shell pairs after pre-screening             ...      5046
Total number of primitive shell pairs       ...     14346
Primitive shell pairs kept                  ...     11325
          la=0 lb=0:   1095 shell pairs
          la=1 lb=0:   1386 shell pairs
          la=1 lb=1:    456 shell pairs
          la=2 lb=0:    822 shell pairs
          la=2 lb=1:    522 shell pairs
          la=2 lb=2:    168 shell pairs
          la=3 lb=0:    288 shell pairs
          la=3 lb=1:    180 shell pairs
          la=3 lb=2:    108 shell pairs
          la=3 lb=3:     21 shell pairs

Calculating one electron integrals          ... done (  0.0 sec)
Calculating RI/J V-Matrix + Cholesky decomp.... done (  0.0 sec)
Calculating Nuclear repulsion               ... done (  0.0 sec) ENN=    204.957759944352 Eh

Diagonalization of the overlap matrix:
Smallest eigenvalue                        ... 9.606e-06
Time for diagonalization                   ...    0.010 sec
Threshold for overlap eigenvalues          ... 1.000e-07
Number of eigenvalues below threshold      ... 0
Time for construction of square roots      ...    0.007 sec
Total time needed                          ...    0.019 sec

-------------------
DFT GRID GENERATION
-------------------

General Integration Accuracy     IntAcc      ... 4.388
Radial Grid Type                 RadialGrid  ... OptM3 with GC (2021)
Angular Grid (max. ang.)         AngularGrid ... 4 (Lebedev-302)
Angular grid pruning method      GridPruning ... 4 (adaptive)
Weight generation scheme         WeightScheme... mBecke (2022)
Basis function cutoff            BFCut       ... 1.0000e-12
Integration weight cutoff        WCut        ... 1.0000e-14
Partially contracted basis set               ... off
Rotationally invariant grid construction     ... off
Angular grids for H and He will be reduced by one unit

Total number of grid points                  ...    55482
Total number of batches                      ...      874
Average number of points per batch           ...       63
Average number of grid points per atom       ...     4624
Initializing property integral containers    ... done (  0.0 sec)

SHARK setup successfully completed in   0.6 seconds

Maximum memory used throughout the entire STARTUP-calculation: 19.2 MB


           ************************************************************
           *        Program running with 30 parallel MPI-processes    *
           *              working on a common directory               *
           ************************************************************
-------------------------------------------------------------------------------
                                 ORCA GUESS
                   Start orbitals & Density for SCF / CASSCF
-------------------------------------------------------------------------------

------------
SCF SETTINGS
------------
Hamiltonian:
 Density Functional     Method          .... DFT(GTOs)
 Exchange Functional    Exchange        .... Slater
   X-Alpha parameter    XAlpha          ....  0.666667
 Correlation Functional Correlation     .... No Correlation
 Gradients option       PostSCFGGA      .... off
 RI-approximation to the Coulomb term is turned on
   Number of AuxJ basis functions       .... 360


General Settings:
 Integral files         IntName         .... C6H6_Opt_Geom-HFS
 Hartree-Fock type      HFTyp           .... RHF
 Total Charge           Charge          ....    0
 Multiplicity           Mult            ....    1
 Number of Electrons    NEL             ....   42
 Basis Dimension        Dim             ....  270
 Nuclear Repulsion      ENuc            ....    204.9577599444 Eh

Convergence Acceleration:
 AO-DIIS                CNVDIIS         .... on
   Start iteration      DIISMaxIt       ....    12
   Startup error        DIISStart       ....  0.200000
   # of expansion vecs  DIISMaxEq       ....     5
   Bias factor          DIISBfac        ....   1.050
   Max. coefficient     DIISMaxC        ....  10.000
 MO-DIIS                CNVKDIIS        .... off
 Trust-Rad. Augm. Hess. CNVTRAH         .... auto
   Auto Start mean grad. ratio tolernc. ....  1.125000
   Auto Start start iteration           ....    50
   Auto Start num. interpolation iter.  ....    10
   Max. Number of Micro iterations      ....    24
   Max. Number of Macro iterations      .... Maxiter - #DIIS iter
   Number of Davidson start vectors     ....     2
   Converg. threshold    (grad. norm)   ....   2.000e-06
   Grad. Scal. Fac. for Micro threshold ....   0.100
   Minimum threshold for Micro iter.    ....   1.000e-02
   NR start threshold (gradient norm)   ....   1.000e-04
   Initial trust radius                 ....   0.400
   Minimum AH scaling param. (alpha)    ....   1.000
   Maximum AH scaling param. (alpha)    .... 1000.000
   Quad. conv. algorithm                .... NR
   White noise on init. David. guess    .... on
   Maximum white noise                  ....   0.010
   Pseudo random numbers                .... off
   Inactive MOs                         .... canonical
   Orbital update algorithm             .... Taylor
   Preconditioner                       .... Diag
   Full preconditioner red. dimension   ....   250
 SOSCF                  CNVSOSCF        .... on
   Start iteration      SOSCFMaxIt      ....   150
   Startup grad/error   SOSCFStart      ....  0.003300
   Hessian update       SOSCFHessUp     .... L-BFGS
 Level Shifting         CNVShift        .... on
   Level shift para.    LevelShift      ....    0.2500
   Turn off err/grad.   ShiftErr        ....    0.0010
 Zerner damping         CNVZerner       .... off
 Static damping         CNVDamp         .... on
   Fraction old density DampFac         ....    0.7000
   Max. Damping (<1)    DampMax         ....    0.9800
   Min. Damping (>=0)   DampMin         ....    0.0000
   Turn off err/grad.   DampErr         ....    0.1000

SCF Procedure:
 Maximum # iterations   MaxIter         ....   400
 SCF integral mode      SCFMode         .... Direct
   Integral package                     .... SHARK and LIBINT hybrid scheme
 Reset frequency        DirectResetFreq ....    20
 Integral Threshold     Thresh          ....  1.000e-12 Eh
 Primitive CutOff       TCut            ....  1.000e-14 Eh

Convergence Tolerance:
 Convergence Check Mode ConvCheckMode   .... Total+1el-Energy
 Convergence forced     ConvForced      .... 0
 Energy Change          TolE            ....  1.000e-09 Eh
 1-El. energy change                    ....  1.000e-06 Eh
 Orbital Gradient       TolG            ....  2.000e-06
 Orbital Rotation angle TolX            ....  2.000e-06
 DIIS Error             TolErr          ....  1.000e-08

------------------------------
INITIAL GUESS: MODEL POTENTIAL
------------------------------
Loading Hartree-Fock densities                     ... done
Calculating cut-offs                               ... done
Initializing the effective Hamiltonian             ... done
Setting up the integral package (SHARK)            ... done
Starting the Coulomb interaction                   ... done (   0.0 sec)
Making the grid                                    ... done (   0.1 sec)
Mapping shells                                     ... done
Starting the XC term evaluation                    ... done (   0.0 sec)
  promolecular density results
     # of electrons  =     41.997045641
     EX              =    -29.376260009
     EC              =      0.000000000
     EX+EC           =    -29.376260009
Transforming the Hamiltonian                       ... done (   0.0 sec)
Diagonalizing the Hamiltonian                      ... done (   0.0 sec)
Back transforming the eigenvectors                 ... done (   0.0 sec)
Now organizing SCF variables                       ... done
                      ------------------
                      INITIAL GUESS DONE (   0.2 sec)
                      ------------------
             **** ENERGY FILE WAS UPDATED (C6H6_Opt_Geom-HFS.en.tmp) ****
Finished Guess after   0.8 sec
Maximum memory used throughout the entire GUESS-calculation: 14.2 MB


           ************************************************************
           *        Program running with 30 parallel MPI-processes    *
           *              working on a common directory               *
           ************************************************************

-------------------------------------------------------------------------------------------
                                      ORCA LEAN-SCF
                              memory conserving SCF solver
-------------------------------------------------------------------------------------------

----------------------------------------D-I-I-S--------------------------------------------
Iteration    Energy (Eh)           Delta-E    RMSDP     MaxDP     DIISErr   Damp  Time(sec)
-------------------------------------------------------------------------------------------
               ***  Starting incremental Fock matrix formation  ***
    1    -197.0463492567689059     0.00e+00  4.44e-02  1.51e+00  1.22e+00  0.700   0.2
Warning: op=0 Small HOMO/LUMO gap (   0.094) - skipping pre-diagonalization
         Will do a full diagonalization
    2    -197.7846963434428176    -7.38e-01  4.53e-02  1.50e+00  7.86e-01  0.700   0.2
    3    -198.0168384741032810    -2.32e-01  1.09e-02  3.86e-01  5.08e-01  0.700   0.1
    4    -198.1841179264858965    -1.67e-01  1.10e-02  3.31e-01  3.31e-01  0.700   0.1
    5    -198.3082728196492894    -1.24e-01  1.31e-02  4.33e-01  2.17e-01  0.700   0.2
                               ***Turning on AO-DIIS***
    6    -198.3926016469487763    -8.43e-02  1.10e-02  3.72e-01  1.43e-01  0.700   0.2
    7    -198.4507537869719727    -5.82e-02  7.44e-03  2.54e-01  9.86e-02  0.700   0.2
    8    -198.4915273355251202    -4.08e-02  1.46e-02  5.01e-01  6.78e-02  0.000   0.2
    9    -198.5858975845485475    -9.44e-02  1.15e-03  3.71e-02  7.05e-03  0.000   0.2
                              *** Initializing SOSCF ***
---------------------------------------S-O-S-C-F--------------------------------------
Iteration    Energy (Eh)           Delta-E    RMSDP     MaxDP     MaxGrad    Time(sec)
--------------------------------------------------------------------------------------
   10    -198.5861998350326871    -3.02e-04  1.85e-04  5.99e-03  1.06e-03     0.2
               *** Restarting incremental Fock matrix formation ***
   11    -198.5862083953514343    -8.56e-06  5.24e-05  1.66e-03  6.23e-05     0.1
   12    -198.5862083070651920     8.83e-08  1.93e-05  6.33e-04  9.78e-05     0.1
   13    -198.5862084926826583    -1.86e-07  1.98e-05  6.81e-04  2.74e-05     0.1
   14    -198.5862084944177468    -1.74e-09  1.55e-05  5.23e-04  2.66e-05     0.1
   15    -198.5862085132202424    -1.88e-08  3.25e-06  1.03e-04  2.42e-06     0.1
   16    -198.5862085134257882    -2.06e-10  8.62e-07  2.77e-05  6.88e-07     0.1
                 **** Energy Check signals convergence ****

               *****************************************************
               *                     SUCCESS                       *
               *           SCF CONVERGED AFTER  16 CYCLES          *
               *****************************************************

             **** ENERGY FILE WAS UPDATED (C6H6_Opt_Geom-HFS.en.tmp) ****

----------------
TOTAL SCF ENERGY
----------------

Total Energy       :       -198.58620851342579 Eh           -5403.80546 eV

Components:
Nuclear Repulsion  :        204.95775994435201 Eh            5577.18419 eV
Electronic Energy  :       -403.54396845777779 Eh          -10980.98964 eV
One Electron Energy:       -703.35260758347454 Eh          -19139.19747 eV
Two Electron Energy:        299.80863912569674 Eh            8158.20783 eV

Virial components:
Potential Energy   :       -405.14535839003111 Eh          -11024.56568 eV
Kinetic Energy     :        206.55914987660532 Eh            5620.76022 eV
Virial Ratio       :          1.96140117071579

DFT components:
N(Alpha)           :        0.000000000000 electrons
N(Beta)            :        0.000000000000 electrons
N(Total)           :        0.000000000000 electrons
E(X)               :        0.000000000000 Eh       
E(C)               :        0.000000000000 Eh       
E(XC)              :        0.000000000000 Eh       

---------------
SCF CONVERGENCE
---------------

  Last Energy change         ...    2.0555e-10  Tolerance :   1.0000e-09
  Last MAX-Density change    ...    2.7742e-05  Tolerance :   1.0000e-08
  Last RMS-Density change    ...    8.6207e-07  Tolerance :   1.0000e-09
  Last DIIS Error            ...    1.0561e-03  Tolerance :   1.0000e-08
  Last Orbital Gradient      ...    6.8762e-07  Tolerance :   2.0000e-06
  Last Orbital Rotation      ...    1.1718e-06  Tolerance :   2.0000e-06


----------------
ORBITAL ENERGIES
----------------

  NO   OCC          E(Eh)            E(eV) 
   0   2.0000      -8.288847      -225.5510 
   1   2.0000      -8.288847      -225.5510 
   2   2.0000      -8.288642      -225.5454 
   3   2.0000      -8.288196      -225.5333 
   4   2.0000      -8.288133      -225.5316 
   5   2.0000      -8.288132      -225.5315 
   6   2.0000      -0.466845       -12.7035 
   7   2.0000      -0.347224        -9.4484 
   8   2.0000      -0.347223        -9.4484 
   9   2.0000      -0.220676        -6.0049 
  10   2.0000      -0.220675        -6.0049 
  11   2.0000      -0.186611        -5.0779 
  12   2.0000      -0.094894        -2.5822 
  13   2.0000      -0.094760        -2.5785 
  14   2.0000      -0.078837        -2.1453 
  15   2.0000      -0.071700        -1.9511 
  16   2.0000      -0.071699        -1.9510 
  17   2.0000       0.015616         0.4249 
  18   2.0000       0.015616         0.4249 
  19   2.0000       0.016522         0.4496 
  20   2.0000       0.016523         0.4496 
  21   0.0000       0.182520         4.9666 
  22   0.0000       0.197656         5.3785 
  23   0.0000       0.197656         5.3785 
  24   0.0000       0.207545         5.6476 
  25   0.0000       0.207545         5.6476 
  26   0.0000       0.236781         6.4431 
  27   0.0000       0.236781         6.4431 
  28   0.0000       0.242938         6.6107 
  29   0.0000       0.265351         7.2206 
  30   0.0000       0.327386         8.9086 
  31   0.0000       0.336880         9.1670 
*Only the first 10 virtual orbitals were printed.

                    ********************************
                    * MULLIKEN POPULATION ANALYSIS *
                    ********************************

-----------------------
MULLIKEN ATOMIC CHARGES
-----------------------
   0 C :    0.139761
   1 C :    0.139761
   2 C :    0.139761
   3 C :    0.139761
   4 C :    0.139761
   5 C :    0.139761
   6 H :   -0.139761
   7 H :   -0.139762
   8 H :   -0.139761
   9 H :   -0.139761
  10 H :   -0.139762
  11 H :   -0.139761
Sum of atomic charges:    0.0000000

--------------------------------
MULLIKEN REDUCED ORBITAL CHARGES
--------------------------------
  0 C s       :     3.190111  s :     3.190111
      pz      :     0.965117  p :     2.600304
      px      :     0.761544
      py      :     0.873643
      dz2     :     0.006172  d :     0.066787
      dxz     :     0.009209
      dyz     :     0.013962
      dx2y2   :     0.011149
      dxy     :     0.026295
      f0      :     0.000867  f :     0.003037
      f+1     :     0.000203
      f-1     :    -0.000039
      f+2     :     0.000644
      f-2     :     0.000327
      f+3     :     0.001883
      f-3     :    -0.000848

  1 C s       :     3.190111  s :     3.190111
      pz      :     0.965117  p :     2.600304
      px      :     0.761544
      py      :     0.873643
      dz2     :     0.006172  d :     0.066787
      dxz     :     0.009209
      dyz     :     0.013962
      dx2y2   :     0.011149
      dxy     :     0.026295
      f0      :     0.000867  f :     0.003037
      f+1     :     0.000203
      f-1     :    -0.000039
      f+2     :     0.000644
      f-2     :     0.000327
      f+3     :     0.001883
      f-3     :    -0.000848

  2 C s       :     3.190113  s :     3.190113
      pz      :     0.965117  p :     2.600302
      px      :     0.929690
      py      :     0.705495
      dz2     :     0.006172  d :     0.066787
      dxz     :     0.016339
      dyz     :     0.006832
      dx2y2   :     0.033868
      dxy     :     0.003576
      f0      :     0.000867  f :     0.003037
      f+1     :    -0.000160
      f-1     :     0.000323
      f+2     :     0.000169
      f-2     :     0.000802
      f+3     :     0.001883
      f-3     :    -0.000848

  3 C s       :     3.190111  s :     3.190111
      pz      :     0.965117  p :     2.600304
      px      :     0.761544
      py      :     0.873643
      dz2     :     0.006172  d :     0.066787
      dxz     :     0.009209
      dyz     :     0.013962
      dx2y2   :     0.011149
      dxy     :     0.026295
      f0      :     0.000867  f :     0.003037
      f+1     :     0.000203
      f-1     :    -0.000039
      f+2     :     0.000644
      f-2     :     0.000327
      f+3     :     0.001883
      f-3     :    -0.000848

  4 C s       :     3.190111  s :     3.190111
      pz      :     0.965117  p :     2.600304
      px      :     0.761544
      py      :     0.873643
      dz2     :     0.006172  d :     0.066787
      dxz     :     0.009209
      dyz     :     0.013962
      dx2y2   :     0.011149
      dxy     :     0.026295
      f0      :     0.000867  f :     0.003037
      f+1     :     0.000203
      f-1     :    -0.000039
      f+2     :     0.000644
      f-2     :     0.000327
      f+3     :     0.001883
      f-3     :    -0.000848

  5 C s       :     3.190113  s :     3.190113
      pz      :     0.965117  p :     2.600302
      px      :     0.929690
      py      :     0.705495
      dz2     :     0.006172  d :     0.066787
      dxz     :     0.016339
      dyz     :     0.006832
      dx2y2   :     0.033868
      dxy     :     0.003576
      f0      :     0.000867  f :     0.003037
      f+1     :    -0.000160
      f-1     :     0.000323
      f+2     :     0.000169
      f-2     :     0.000802
      f+3     :     0.001883
      f-3     :    -0.000848

  6 H s       :     1.113029  s :     1.113029
      pz      :     0.009300  p :     0.026634
      px      :     0.008583
      py      :     0.008751
      dz2     :    -0.000247  d :     0.000097
      dxz     :     0.000423
      dyz     :     0.000151
      dx2y2   :     0.000279
      dxy     :    -0.000508

  7 H s       :     1.113031  s :     1.113031
      pz      :     0.009300  p :     0.026634
      px      :     0.008835
      py      :     0.008498
      dz2     :    -0.000247  d :     0.000097
      dxz     :     0.000015
      dyz     :     0.000559
      dx2y2   :    -0.000902
      dxy     :     0.000673

  8 H s       :     1.113029  s :     1.113029
      pz      :     0.009300  p :     0.026634
      px      :     0.008583
      py      :     0.008751
      dz2     :    -0.000247  d :     0.000097
      dxz     :     0.000423
      dyz     :     0.000151
      dx2y2   :     0.000279
      dxy     :    -0.000508

  9 H s       :     1.113029  s :     1.113029
      pz      :     0.009300  p :     0.026634
      px      :     0.008583
      py      :     0.008751
      dz2     :    -0.000247  d :     0.000097
      dxz     :     0.000423
      dyz     :     0.000151
      dx2y2   :     0.000279
      dxy     :    -0.000508

 10 H s       :     1.113031  s :     1.113031
      pz      :     0.009300  p :     0.026634
      px      :     0.008835
      py      :     0.008498
      dz2     :    -0.000247  d :     0.000097
      dxz     :     0.000015
      dyz     :     0.000559
      dx2y2   :    -0.000902
      dxy     :     0.000673

 11 H s       :     1.113029  s :     1.113029
      pz      :     0.009300  p :     0.026634
      px      :     0.008583
      py      :     0.008751
      dz2     :    -0.000247  d :     0.000097
      dxz     :     0.000423
      dyz     :     0.000151
      dx2y2   :     0.000279
      dxy     :    -0.000508



                     *******************************
                     * LOEWDIN POPULATION ANALYSIS *
                     *******************************

----------------------
LOEWDIN ATOMIC CHARGES
----------------------
   0 C :    0.024948
   1 C :    0.024948
   2 C :    0.024947
   3 C :    0.024948
   4 C :    0.024948
   5 C :    0.024947
   6 H :   -0.024947
   7 H :   -0.024947
   8 H :   -0.024947
   9 H :   -0.024947
  10 H :   -0.024947
  11 H :   -0.024947

-------------------------------
LOEWDIN REDUCED ORBITAL CHARGES
-------------------------------
  0 C s       :     2.683852  s :     2.683852
      pz      :     0.855811  p :     2.884135
      px      :     0.993921
      py      :     1.034402
      dz2     :     0.021641  d :     0.372080
      dxz     :     0.028787
      dyz     :     0.057471
      dx2y2   :     0.119149
      dxy     :     0.145032
      f0      :     0.001353  f :     0.034987
      f+1     :     0.002164
      f-1     :     0.002543
      f+2     :     0.004628
      f-2     :     0.002390
      f+3     :     0.015933
      f-3     :     0.005977

  1 C s       :     2.683852  s :     2.683852
      pz      :     0.855811  p :     2.884135
      px      :     0.993921
      py      :     1.034402
      dz2     :     0.021641  d :     0.372080
      dxz     :     0.028787
      dyz     :     0.057471
      dx2y2   :     0.119149
      dxy     :     0.145032
      f0      :     0.001353  f :     0.034987
      f+1     :     0.002164
      f-1     :     0.002543
      f+2     :     0.004628
      f-2     :     0.002390
      f+3     :     0.015933
      f-3     :     0.005977

  2 C s       :     2.683851  s :     2.683851
      pz      :     0.855811  p :     2.884134
      px      :     1.054644
      py      :     0.973679
      dz2     :     0.021641  d :     0.372080
      dxz     :     0.071813
      dyz     :     0.014444
      dx2y2   :     0.157974
      dxy     :     0.106207
      f0      :     0.001353  f :     0.034987
      f+1     :     0.002732
      f-1     :     0.001974
      f+2     :     0.001271
      f-2     :     0.005746
      f+3     :     0.015933
      f-3     :     0.005977

  3 C s       :     2.683852  s :     2.683852
      pz      :     0.855811  p :     2.884135
      px      :     0.993921
      py      :     1.034402
      dz2     :     0.021641  d :     0.372080
      dxz     :     0.028787
      dyz     :     0.057471
      dx2y2   :     0.119149
      dxy     :     0.145032
      f0      :     0.001353  f :     0.034987
      f+1     :     0.002164
      f-1     :     0.002543
      f+2     :     0.004628
      f-2     :     0.002390
      f+3     :     0.015933
      f-3     :     0.005977

  4 C s       :     2.683852  s :     2.683852
      pz      :     0.855811  p :     2.884135
      px      :     0.993921
      py      :     1.034402
      dz2     :     0.021641  d :     0.372080
      dxz     :     0.028787
      dyz     :     0.057471
      dx2y2   :     0.119149
      dxy     :     0.145032
      f0      :     0.001353  f :     0.034987
      f+1     :     0.002164
      f-1     :     0.002543
      f+2     :     0.004628
      f-2     :     0.002390
      f+3     :     0.015933
      f-3     :     0.005977

  5 C s       :     2.683851  s :     2.683851
      pz      :     0.855811  p :     2.884134
      px      :     1.054644
      py      :     0.973679
      dz2     :     0.021641  d :     0.372080
      dxz     :     0.071813
      dyz     :     0.014444
      dx2y2   :     0.157974
      dxy     :     0.106207
      f0      :     0.001353  f :     0.034987
      f+1     :     0.002732
      f-1     :     0.001974
      f+2     :     0.001271
      f-2     :     0.005746
      f+3     :     0.015933
      f-3     :     0.005977

  6 H s       :     0.848465  s :     0.848465
      pz      :     0.043371  p :     0.151951
      px      :     0.058627
      py      :     0.049953
      dz2     :     0.002122  d :     0.024531
      dxz     :     0.004615
      dyz     :     0.001575
      dx2y2   :     0.008811
      dxy     :     0.007408

  7 H s       :     0.848465  s :     0.848465
      pz      :     0.043371  p :     0.151951
      px      :     0.045616
      py      :     0.062964
      dz2     :     0.002122  d :     0.024531
      dxz     :     0.000054
      dyz     :     0.006136
      dx2y2   :     0.006707
      dxy     :     0.009512

  8 H s       :     0.848465  s :     0.848465
      pz      :     0.043371  p :     0.151951
      px      :     0.058627
      py      :     0.049953
      dz2     :     0.002122  d :     0.024531
      dxz     :     0.004615
      dyz     :     0.001575
      dx2y2   :     0.008811
      dxy     :     0.007408

  9 H s       :     0.848465  s :     0.848465
      pz      :     0.043371  p :     0.151951
      px      :     0.058627
      py      :     0.049953
      dz2     :     0.002122  d :     0.024531
      dxz     :     0.004615
      dyz     :     0.001575
      dx2y2   :     0.008811
      dxy     :     0.007408

 10 H s       :     0.848465  s :     0.848465
      pz      :     0.043371  p :     0.151951
      px      :     0.045616
      py      :     0.062964
      dz2     :     0.002122  d :     0.024531
      dxz     :     0.000054
      dyz     :     0.006136
      dx2y2   :     0.006707
      dxy     :     0.009512

 11 H s       :     0.848465  s :     0.848465
      pz      :     0.043371  p :     0.151951
      px      :     0.058627
      py      :     0.049953
      dz2     :     0.002122  d :     0.024531
      dxz     :     0.004615
      dyz     :     0.001575
      dx2y2   :     0.008811
      dxy     :     0.007408



                      *****************************
                      * MAYER POPULATION ANALYSIS *
                      *****************************

  NA   - Mulliken gross atomic population
  ZA   - Total nuclear charge
  QA   - Mulliken gross atomic charge
  VA   - Mayer's total valence
  BVA  - Mayer's bonded valence
  FA   - Mayer's free valence

  ATOM       NA         ZA         QA         VA         BVA        FA
  0 C      5.8602     6.0000     0.1398     3.6076     3.6076     0.0000
  1 C      5.8602     6.0000     0.1398     3.6076     3.6076     0.0000
  2 C      5.8602     6.0000     0.1398     3.6076     3.6076     0.0000
  3 C      5.8602     6.0000     0.1398     3.6076     3.6076     0.0000
  4 C      5.8602     6.0000     0.1398     3.6076     3.6076     0.0000
  5 C      5.8602     6.0000     0.1398     3.6076     3.6076     0.0000
  6 H      1.1398     1.0000    -0.1398     0.8980     0.8980     0.0000
  7 H      1.1398     1.0000    -0.1398     0.8980     0.8980     0.0000
  8 H      1.1398     1.0000    -0.1398     0.8980     0.8980     0.0000
  9 H      1.1398     1.0000    -0.1398     0.8980     0.8980     0.0000
 10 H      1.1398     1.0000    -0.1398     0.8980     0.8980    -0.0000
 11 H      1.1398     1.0000    -0.1398     0.8980     0.8980    -0.0000

  Mayer bond orders larger than 0.100000
B(  0-C ,  1-C ) :   1.2749 B(  0-C ,  5-C ) :   1.2749 B(  0-C , 11-H ) :   1.0082 
B(  1-C ,  2-C ) :   1.2749 B(  1-C ,  6-H ) :   1.0082 B(  2-C ,  3-C ) :   1.2749 
B(  2-C ,  7-H ) :   1.0082 B(  3-C ,  4-C ) :   1.2749 B(  3-C ,  8-H ) :   1.0082 
B(  4-C ,  5-C ) :   1.2749 B(  4-C ,  9-H ) :   1.0082 B(  5-C , 10-H ) :   1.0082 


-------
TIMINGS
-------

Total SCF time: 0 days 0 hours 0 min 3 sec 

Total time                  ....       3.038 sec
Sum of individual times     ....       3.013 sec  ( 99.2%)

SCF preparation             ....       0.542 sec  ( 17.8%)
Fock matrix formation       ....       1.044 sec  ( 34.4%)
  Startup                   ....       0.049 sec  (  4.7% of F)
  Split-RI-J                ....       0.901 sec  ( 86.3% of F)
Diagonalization             ....       0.000 sec  (  0.0%)
Density matrix formation    ....       0.162 sec  (  5.3%)
Total Energy calculation    ....       0.082 sec  (  2.7%)
Population analysis         ....       0.048 sec  (  1.6%)
Orbital Transformation      ....       0.120 sec  (  4.0%)
Orbital Orthonormalization  ....       0.000 sec  (  0.0%)
DIIS solution               ....       0.752 sec  ( 24.8%)
SOSCF solution              ....       0.262 sec  (  8.6%)
Finished LeanSCF after   3.1 sec

Maximum memory used throughout the entire LEANSCF-calculation: 15.2 MB

-------------------------   --------------------
FINAL SINGLE POINT ENERGY      -198.586208513426
-------------------------   --------------------



           ************************************************************
           *        Program running with 30 parallel MPI-processes    *
           *              working on a common directory               *
           ************************************************************
------------------------------------------------------------------------------
                         ORCA SCF GRADIENT CALCULATION
------------------------------------------------------------------------------

Nuc. rep. gradient        (SHARK) ... done (  0.0 sec)
HCore & Overlap gradient  (SHARK) ... done (  0.0 sec)
Split-RIJ-J gradient      (SHARK) ... done (  0.3 sec)

------------------
CARTESIAN GRADIENT
------------------

   1   C   :    0.115497808   -0.066681165    0.000000000
   2   C   :    0.115497807    0.066681165   -0.000000000
   3   C   :   -0.000000000    0.133365827    0.000000000
   4   C   :   -0.115497807    0.066681165   -0.000000000
   5   C   :   -0.115497807   -0.066681165    0.000000000
   6   C   :    0.000000000   -0.133365827    0.000000000
   7   H   :    0.167523687    0.096720036    0.000000000
   8   H   :    0.000000000    0.193439699   -0.000000000
   9   H   :   -0.167523687    0.096720036    0.000000000
  10   H   :   -0.167523688   -0.096720036    0.000000000
  11   H   :   -0.000000000   -0.193439699   -0.000000000
  12   H   :    0.167523687   -0.096720036   -0.000000000

Difference to translation invariance:
           :   -0.0000000000    0.0000000000    0.0000000000

Difference to rotation invariance:
           :    0.0000000000   -0.0000000000    0.0000000009

Norm of the Cartesian gradient     ...    0.5755267255
RMS gradient                       ...    0.0959211209
MAX gradient                       ...    0.1934396990

-------
TIMINGS
-------

Total SCF gradient time     ....        0.295 sec

Densities                   ....       0.002 sec  (  0.6%)
One electron gradient       ....       0.043 sec  ( 14.5%)
RI-J Coulomb gradient       ....       0.250 sec  ( 84.7%)

Maximum memory used throughout the entire SCFGRAD-calculation: 14.8 MB
------------------------------------------------------------------------------
                         ORCA GEOMETRY RELAXATION STEP
------------------------------------------------------------------------------

Reading the OPT-File                    .... done
Getting information on internals        .... done
Copying old internal coords+grads       .... done
Making the new internal coordinates     .... (2022 redundants) done
Validating the new internal coordinates .... (2022 redundants) done
Calculating the B-matrix                .... done
Calculating the G,G- and P matrices     .... done
Transforming gradient to internals      .... done
Projecting the internal gradient        .... done
Number of atoms                         ....  12
Number of internal coordinates          ....  54
Current Energy                          ....  -198.586208513 Eh
Current gradient norm                   ....     0.575526725 Eh/bohr
Maximum allowed component of the step   ....  0.300
Current trust radius                    ....  0.300
Evaluating the initial hessian          ....  (Almloef) done
Projecting the Hessian                  .... done
Forming the augmented Hessian           .... done
Diagonalizing the augmented Hessian     .... done
Last element of RFO vector              ....  0.800827825
Lowest eigenvalues of augmented Hessian:
 -0.692105973  0.028280291  0.028280291  0.028280336  0.028280336
Length of the computed step             ....  0.747844450
Warning: the length of the step is outside the trust region - taking restricted step instead
The input lambda is                     ....     0.027280
   iter:   5  x=   -2.105490  g=    0.187957 f(x)=     0.106288
   iter:  10  x=   -2.537658  g=    0.058184 f(x)=     0.000000
The output lambda is                    ....    -2.537658 (11 iterations)
The final length of the internal step   ....  0.300000000
Converting the step to Cartesian space:
 Initial RMS(Int)=    0.0408248290
Transforming coordinates:
 Iter   0:  RMS(Cart)=    0.0808885161 RMS(Int)=    2.4187437083
done
Storing new coordinates                 .... done

                                .--------------------.
          ----------------------|Geometry convergence|-------------------------
          Item                value                   Tolerance       Converged
          ---------------------------------------------------------------------
          RMS gradient        0.1265878277            0.0000100000      NO
          MAX gradient        0.3268051861            0.0001000000      NO
          RMS step            0.0408248290            0.0000100000      NO
          MAX step            0.1029055163            0.0001000000      NO
          ........................................................
          Max(Bonds)      0.0545      Max(Angles)    0.00
          Max(Dihed)        0.00      Max(Improp)    0.00
          ---------------------------------------------------------------------

The optimization has not yet converged - more geometry cycles are needed


    ---------------------------------------------------------------------------
                         Redundant Internal Coordinates
                            (Angstroem and degrees)

        Definition                    Value    dE/dq     Step     New-Value
    ----------------------------------------------------------------------------
     1. B(C   1,C   0)                1.3843 -0.326804  0.0545    1.4387   
     2. B(C   2,C   1)                1.3843 -0.326805  0.0545    1.4387   
     3. B(C   3,C   2)                1.3843 -0.326805  0.0545    1.4387   
     4. B(C   4,C   3)                1.3843 -0.326804  0.0545    1.4387   
     5. B(C   5,C   4)                1.3843 -0.326805  0.0545    1.4387   
     6. B(C   5,C   0)                1.3843 -0.326805  0.0545    1.4387   
     7. B(H   6,C   1)                1.0789 -0.193440  0.0351    1.1140   
     8. B(H   7,C   2)                1.0789 -0.193440  0.0351    1.1140   
     9. B(H   8,C   3)                1.0789 -0.193440  0.0351    1.1140   
    10. B(H   9,C   4)                1.0789 -0.193440  0.0351    1.1140   
    11. B(H  10,C   5)                1.0789 -0.193440  0.0351    1.1140   
    12. B(H  11,C   0)                1.0789 -0.193440  0.0351    1.1140   
    13. A(C   1,C   0,H  11)          120.00  0.000000   -0.00    120.00   
    14. A(C   5,C   0,H  11)          120.00  0.000000   -0.00    120.00   
    15. A(C   1,C   0,C   5)          120.00 -0.000001    0.00    120.00   
    16. A(C   0,C   1,C   2)          120.00 -0.000001    0.00    120.00   
    17. A(C   2,C   1,H   6)          120.00  0.000000   -0.00    120.00   
    18. A(C   0,C   1,H   6)          120.00  0.000000   -0.00    120.00   
    19. A(C   3,C   2,H   7)          120.00 -0.000001    0.00    120.00   
    20. A(C   1,C   2,H   7)          120.00 -0.000001    0.00    120.00   
    21. A(C   1,C   2,C   3)          120.00  0.000001   -0.00    120.00   
    22. A(C   2,C   3,C   4)          120.00 -0.000001    0.00    120.00   
    23. A(C   4,C   3,H   8)          120.00  0.000000   -0.00    120.00   
    24. A(C   2,C   3,H   8)          120.00  0.000000   -0.00    120.00   
    25. A(C   5,C   4,H   9)          120.00  0.000000   -0.00    120.00   
    26. A(C   3,C   4,H   9)          120.00  0.000000   -0.00    120.00   
    27. A(C   3,C   4,C   5)          120.00 -0.000001    0.00    120.00   
    28. A(C   0,C   5,H  10)          120.00 -0.000001    0.00    120.00   
    29. A(C   0,C   5,C   4)          120.00  0.000001   -0.00    120.00   
    30. A(C   4,C   5,H  10)          120.00 -0.000001    0.00    120.00   
    31. D(H   6,C   1,C   0,C   5)    180.00 -0.000000    0.00    180.00   
    32. D(H   6,C   1,C   0,H  11)      0.00 -0.000000   -0.00     -0.00   
    33. D(C   2,C   1,C   0,H  11)    180.00 -0.000000   -0.00    180.00   
    34. D(C   2,C   1,C   0,C   5)      0.00  0.000000    0.00      0.00   
    35. D(H   7,C   2,C   1,C   0)    180.00  0.000000   -0.00    180.00   
    36. D(C   3,C   2,C   1,C   0)      0.00 -0.000000   -0.00     -0.00   
    37. D(C   3,C   2,C   1,H   6)    180.00 -0.000000    0.00    180.00   
    38. D(H   7,C   2,C   1,H   6)      0.00  0.000000   -0.00     -0.00   
    39. D(H   8,C   3,C   2,H   7)      0.00  0.000000   -0.00     -0.00   
    40. D(H   8,C   3,C   2,C   1)    180.00  0.000000   -0.00    180.00   
    41. D(C   4,C   3,C   2,H   7)    180.00 -0.000000    0.00    180.00   
    42. D(C   4,C   3,C   2,C   1)      0.00  0.000000    0.00      0.00   
    43. D(H   9,C   4,C   3,C   2)    180.00  0.000000    0.00    180.00   
    44. D(C   5,C   4,C   3,H   8)    180.00  0.000000    0.00    180.00   
    45. D(C   5,C   4,C   3,C   2)      0.00 -0.000000   -0.00     -0.00   
    46. D(H   9,C   4,C   3,H   8)      0.00 -0.000000    0.00      0.00   
    47. D(H  10,C   5,C   4,H   9)      0.00  0.000000   -0.00     -0.00   
    48. D(C   0,C   5,C   4,H   9)    180.00 -0.000000    0.00    180.00   
    49. D(C   0,C   5,C   4,C   3)      0.00 -0.000000    0.00      0.00   
    50. D(H  10,C   5,C   0,H  11)      0.00 -0.000000    0.00      0.00   
    51. D(H  10,C   5,C   0,C   1)    180.00 -0.000000   -0.00    180.00   
    52. D(H  10,C   5,C   4,C   3)    180.00  0.000000    0.00    180.00   
    53. D(C   4,C   5,C   0,H  11)    180.00  0.000000    0.00    180.00   
    54. D(C   4,C   5,C   0,C   1)      0.00 -0.000000   -0.00     -0.00   
    ----------------------------------------------------------------------------

Geometry step timings:
Preparation and reading OPT file:      0.000 s ( 5.344 %)
Internal coordinates            :      0.000 s ( 0.668 %)
B/P matrices and projection     :      0.001 s (14.896 %)
Hessian update/contruction      :      0.001 s (13.850 %)
Making the step                 :      0.001 s (31.018 %)
Converting the step to Cartesian:      0.000 s ( 2.472 %)
Storing new data                :      0.000 s ( 1.959 %)
Checking convergence            :      0.000 s ( 0.490 %)
Final printing                  :      0.001 s (29.169 %)
Total time                      :      0.004 s

Time for energy+gradient        :      7.317 s
Time for complete geometry iter :      8.244 s

         *************************************************************
         *                GEOMETRY OPTIMIZATION CYCLE   2            *
         *************************************************************
---------------------------------
CARTESIAN COORDINATES (ANGSTROEM)
---------------------------------
  C     -1.245962    0.719356    0.000000
  C     -1.245962   -0.719356   -0.000000
  C      0.000000   -1.438709   -0.000000
  C      1.245962   -0.719356   -0.000000
  C      1.245962    0.719356    0.000000
  C     -0.000000    1.438709   -0.000000
  H     -2.210750   -1.276377    0.000000
  H     -0.000000   -2.552750    0.000000
  H      2.210750   -1.276377    0.000000
  H      2.210750    1.276377   -0.000000
  H      0.000000    2.552750    0.000000
  H     -2.210750    1.276377   -0.000000

----------------------------
CARTESIAN COORDINATES (A.U.)
----------------------------
  NO LB      ZA    FRAG     MASS         X           Y           Z
   0 C     6.0000    0    12.011   -2.354527    1.359386    0.000000
   1 C     6.0000    0    12.011   -2.354527   -1.359386   -0.000000
   2 C     6.0000    0    12.011    0.000000   -2.718766   -0.000000
   3 C     6.0000    0    12.011    2.354527   -1.359386   -0.000000
   4 C     6.0000    0    12.011    2.354527    1.359386    0.000000
   5 C     6.0000    0    12.011   -0.000000    2.718766   -0.000000
   6 H     1.0000    0     1.008   -4.177711   -2.412003    0.000000
   7 H     1.0000    0     1.008   -0.000000   -4.823999    0.000000
   8 H     1.0000    0     1.008    4.177711   -2.412003    0.000000
   9 H     1.0000    0     1.008    4.177711    2.412003   -0.000000
  10 H     1.0000    0     1.008    0.000000    4.823999    0.000000
  11 H     1.0000    0     1.008   -4.177711    2.412003   -0.000000

--------------------------------
INTERNAL COORDINATES (ANGSTROEM)
--------------------------------
 C      0   0   0     0.000000000000     0.00000000     0.00000000
 C      1   0   0     1.438712299055     0.00000000     0.00000000
 C      2   1   0     1.438711236338   119.99988151     0.00000000
 C      3   2   1     1.438711236344   120.00023699     0.00000000
 C      4   3   2     1.438712299051   119.99988151     0.00000000
 C      5   4   3     1.438711236362   119.99988150     0.00000000
 H      2   1   3     1.114041006913   120.00002107   180.00000000
 H      3   2   1     1.114041294829   119.99988150   180.00000000
 H      4   3   2     1.114041006914   120.00009742   180.00000000
 H      5   4   3     1.114041006929   120.00002107   180.00000085
 H      6   5   4     1.114041294836   119.99988150   180.00000000
 H      1   2   3     1.114041006932   120.00002107   180.00000000

---------------------------
INTERNAL COORDINATES (A.U.)
---------------------------
 C      0   0   0     0.000000000000     0.00000000     0.00000000
 C      1   0   0     2.718772230717     0.00000000     0.00000000
 C      2   1   0     2.718770222474   119.99988151     0.00000000
 C      3   2   1     2.718770222485   120.00023699     0.00000000
 C      4   3   2     2.718772230711   119.99988151     0.00000000
 C      5   4   3     2.718770222519   119.99988150     0.00000000
 H      2   1   3     2.105232405024   120.00002107   180.00000000
 H      3   2   1     2.105232949107   119.99988150   180.00000000
 H      4   3   2     2.105232405026   120.00009742   180.00000000
 H      5   4   3     2.105232405055   120.00002107   180.00000085
 H      6   5   4     2.105232949120   119.99988150   180.00000000
 H      1   2   3     2.105232405059   120.00002107   180.00000000



           ************************************************************
           *        Program running with 30 parallel MPI-processes    *
           *              working on a common directory               *
           ************************************************************
------------------------------------------------------------------------------
                   ___                                                        
                  /   \      - P O W E R E D   B Y -                         
                 /     \                                                     
                 |  |  |   _    _      __       _____    __    __             
                 |  |  |  | |  | |    /  \     |  _  \  |  |  /  |          
                  \  \/   | |  | |   /    \    | | | |  |  | /  /          
                 / \  \   | |__| |  /  /\  \   | |_| |  |  |/  /          
                |  |  |   |  __  | /  /__\  \  |    /   |      \           
                |  |  |   | |  | | |   __   |  |    \   |  |\   \          
                \     /   | |  | | |  |  |  |  | |\  \  |  | \   \       
                 \___/    |_|  |_| |__|  |__|  |_| \__\ |__|  \__/        
                                                                              
                      - O R C A' S   B I G   F R I E N D -                    
                                      &                                       
                       - I N T E G R A L  F E E D E R -                       
                                                                              
 v1 FN, 2020, v2 2021, v3 2022-2024                                           
------------------------------------------------------------------------------


----------------------
SHARK INTEGRAL PACKAGE
----------------------

Number of atoms                             ...     12
Number of basis functions                   ...    270
Number of shells                            ...    102
Maximum angular momentum                    ...      3
Integral batch strategy                     ... SHARK/LIBINT Hybrid
RI-J (if used) integral strategy            ... SPLIT-RIJ (Revised 2003 algorithm where possible)
Printlevel                                  ...      1
Contraction scheme used                     ... SEGMENTED contraction
Prescreening option                         ... SCHWARTZ
   Thresh                                   ... 1.000e-12
   Tcut                                     ... 1.000e-14
   Tpresel                                  ... 1.000e-14 
Coulomb Range Separation                    ... NOT USED
Exchange Range Separation                   ... NOT USED
Multipole approximations                    ... NOT USED
Finite Nucleus Model                        ... NOT USED
CABS basis                                  ... NOT available
Auxiliary Coulomb fitting basis             ... AVAILABLE
   # of basis functions in Aux-J            ...    360
   # of shells in Aux-J                     ...    120
   Maximum angular momentum in Aux-J        ...      4
Auxiliary J/K fitting basis                 ... NOT available
Auxiliary Correlation fitting basis         ... NOT available
Auxiliary 'external' fitting basis          ... NOT available

Checking pre-screening integrals            ... done (  0.0 sec) Dimension = 102
Check shell pair data                       ... done (  0.0 sec)
Shell pair information
Shell pair cut-off parameter TPreSel        ...   1.0e-14
Total number of shell pairs                 ...      5253
Shell pairs after pre-screening             ...      5046
Total number of primitive shell pairs       ...     14346
Primitive shell pairs kept                  ...     11271
          la=0 lb=0:   1095 shell pairs
          la=1 lb=0:   1386 shell pairs
          la=1 lb=1:    456 shell pairs
          la=2 lb=0:    822 shell pairs
          la=2 lb=1:    522 shell pairs
          la=2 lb=2:    168 shell pairs
          la=3 lb=0:    288 shell pairs
          la=3 lb=1:    180 shell pairs
          la=3 lb=2:    108 shell pairs
          la=3 lb=3:     21 shell pairs

Calculating one electron integrals          ... done (  0.0 sec)
Calculating RI/J V-Matrix + Cholesky decomp.... done (  0.0 sec)
Calculating Nuclear repulsion               ... done (  0.0 sec) ENN=    197.394494942888 Eh

Diagonalization of the overlap matrix:
Smallest eigenvalue                        ... 1.484e-05
Time for diagonalization                   ...    0.015 sec
Threshold for overlap eigenvalues          ... 1.000e-07
Number of eigenvalues below threshold      ... 0
Time for construction of square roots      ...    0.010 sec
Total time needed                          ...    0.027 sec

-------------------
DFT GRID GENERATION
-------------------

General Integration Accuracy     IntAcc      ... 4.388
Radial Grid Type                 RadialGrid  ... OptM3 with GC (2021)
Angular Grid (max. ang.)         AngularGrid ... 4 (Lebedev-302)
Angular grid pruning method      GridPruning ... 4 (adaptive)
Weight generation scheme         WeightScheme... mBecke (2022)
Basis function cutoff            BFCut       ... 1.0000e-12
Integration weight cutoff        WCut        ... 1.0000e-14
Partially contracted basis set               ... off
Rotationally invariant grid construction     ... off
Angular grids for H and He will be reduced by one unit

Total number of grid points                  ...    55606
Total number of batches                      ...      876
Average number of points per batch           ...       63
Average number of grid points per atom       ...     4634
Initializing property integral containers    ... done (  0.0 sec)

SHARK setup successfully completed in   0.7 seconds

Maximum memory used throughout the entire STARTUP-calculation: 19.8 MB


           ************************************************************
           *        Program running with 30 parallel MPI-processes    *
           *              working on a common directory               *
           ************************************************************
Occupation numbers will be reassigned to an Aufbau configuration
             **** ENERGY FILE WAS UPDATED (C6H6_Opt_Geom-HFS.en.tmp) ****
Finished Guess after   0.6 sec
Maximum memory used throughout the entire GUESS-calculation: 14.7 MB


           ************************************************************
           *        Program running with 30 parallel MPI-processes    *
           *              working on a common directory               *
           ************************************************************
----------------------------------------D-I-I-S--------------------------------------------
Iteration    Energy (Eh)           Delta-E    RMSDP     MaxDP     DIISErr   Damp  Time(sec)
-------------------------------------------------------------------------------------------
               ***  Starting incremental Fock matrix formation  ***
    1    -198.8243728417542115     0.00e+00  2.05e-03  7.24e-02  3.17e-02  0.700   0.2
    2    -198.8274513765283587    -3.08e-03  2.16e-03  7.58e-02  2.24e-02  0.700   0.2
                               ***Turning on AO-DIIS***
    3    -198.8293922903266662    -1.94e-03  2.10e-03  7.33e-02  1.57e-02  0.700   0.1
    4    -198.8306913207438811    -1.30e-03  5.61e-03  1.94e-01  1.10e-02  0.000   0.1
                              *** Initializing SOSCF ***
---------------------------------------S-O-S-C-F--------------------------------------
Iteration    Energy (Eh)           Delta-E    RMSDP     MaxDP     MaxGrad    Time(sec)
--------------------------------------------------------------------------------------
    5    -198.8338475017828273    -3.16e-03  1.35e-04  6.65e-03  2.50e-03     0.2
               *** Restarting incremental Fock matrix formation ***
    6    -198.8338905268778376    -4.30e-05  2.73e-04  9.35e-03  6.57e-04     0.1
    7    -198.8338475147164104     4.30e-05  3.02e-04  9.32e-03  1.60e-03     0.1
    8    -198.8338997300592155    -5.22e-05  3.98e-05  1.20e-03  2.87e-05     0.1
    9    -198.8338997551988996    -2.51e-08  1.24e-05  3.78e-04  1.35e-05     0.1
   10    -198.8338997639004901    -8.70e-09  6.82e-07  2.19e-05  2.60e-06     0.1
   11    -198.8338997639376657    -3.72e-11  2.49e-07  7.47e-06  2.51e-06     0.1
                 **** Energy Check signals convergence ****

               *****************************************************
               *                     SUCCESS                       *
               *           SCF CONVERGED AFTER  11 CYCLES          *
               *****************************************************

             **** ENERGY FILE WAS UPDATED (C6H6_Opt_Geom-HFS.en.tmp) ****

----------------
TOTAL SCF ENERGY
[...]
      px      :     0.801652
      py      :     0.735491
      dz2     :     0.003466  d :     0.029215
      dxz     :     0.005031
      dyz     :     0.001451
      dx2y2   :     0.010593
      dxy     :     0.008674
      f0      :     0.000264  f :     0.001679
      f+1     :     0.000355
      f-1     :     0.000244
      f+2     :     0.000043
      f-2     :     0.000168
      f+3     :     0.000234
      f-3     :     0.000371

  3 C s       :     3.400622  s :     3.400622
      pz      :     0.989031  p :     2.526174
      px      :     0.752031
      py      :     0.785112
      dz2     :     0.003466  d :     0.029215
      dxz     :     0.002346
      dyz     :     0.004136
      dx2y2   :     0.009154
      dxy     :     0.010113
      f0      :     0.000264  f :     0.001679
      f+1     :     0.000272
      f-1     :     0.000327
      f+2     :     0.000137
      f-2     :     0.000074
      f+3     :     0.000234
      f-3     :     0.000371

  4 C s       :     3.400622  s :     3.400622
      pz      :     0.989031  p :     2.526174
      px      :     0.752031
      py      :     0.785112
      dz2     :     0.003466  d :     0.029215
      dxz     :     0.002346
      dyz     :     0.004136
      dx2y2   :     0.009154
      dxy     :     0.010113
      f0      :     0.000264  f :     0.001679
      f+1     :     0.000272
      f-1     :     0.000327
      f+2     :     0.000137
      f-2     :     0.000074
      f+3     :     0.000234
      f-3     :     0.000371

  5 C s       :     3.400622  s :     3.400622
      pz      :     0.989031  p :     2.526174
      px      :     0.801652
      py      :     0.735491
      dz2     :     0.003466  d :     0.029215
      dxz     :     0.005031
      dyz     :     0.001451
      dx2y2   :     0.010593
      dxy     :     0.008674
      f0      :     0.000264  f :     0.001679
      f+1     :     0.000355
      f-1     :     0.000244
      f+2     :     0.000043
      f-2     :     0.000168
      f+3     :     0.000234
      f-3     :     0.000371

  6 H s       :     1.026841  s :     1.026841
      pz      :     0.003888  p :     0.014836
      px      :     0.007008
      py      :     0.003941
      dz2     :     0.000110  d :     0.000633
      dxz     :     0.000092
      dyz     :     0.000032
      dx2y2   :     0.000157
      dxy     :     0.000242

  7 H s       :     1.026841  s :     1.026841
      pz      :     0.003888  p :     0.014836
      px      :     0.002407
      py      :     0.008541
      dz2     :     0.000110  d :     0.000633
      dxz     :     0.000001
      dyz     :     0.000122
      dx2y2   :     0.000285
      dxy     :     0.000114

  8 H s       :     1.026841  s :     1.026841
      pz      :     0.003888  p :     0.014836
      px      :     0.007008
      py      :     0.003941
      dz2     :     0.000110  d :     0.000633
      dxz     :     0.000092
      dyz     :     0.000032
      dx2y2   :     0.000157
      dxy     :     0.000242

  9 H s       :     1.026841  s :     1.026841
      pz      :     0.003888  p :     0.014836
      px      :     0.007008
      py      :     0.003941
      dz2     :     0.000110  d :     0.000633
      dxz     :     0.000092
      dyz     :     0.000032
      dx2y2   :     0.000157
      dxy     :     0.000242

 10 H s       :     1.026841  s :     1.026841
      pz      :     0.003888  p :     0.014836
      px      :     0.002407
      py      :     0.008541
      dz2     :     0.000110  d :     0.000633
      dxz     :     0.000001
      dyz     :     0.000122
      dx2y2   :     0.000285
      dxy     :     0.000114

 11 H s       :     1.026841  s :     1.026841
      pz      :     0.003888  p :     0.014836
      px      :     0.007008
      py      :     0.003941
      dz2     :     0.000110  d :     0.000633
      dxz     :     0.000092
      dyz     :     0.000032
      dx2y2   :     0.000157
      dxy     :     0.000242



                     *******************************
                     * LOEWDIN POPULATION ANALYSIS *
                     *******************************

----------------------
LOEWDIN ATOMIC CHARGES
----------------------
   0 C :   -0.043696
   1 C :   -0.043696
   2 C :   -0.043696
   3 C :   -0.043696
   4 C :   -0.043696
   5 C :   -0.043696
   6 H :    0.043696
   7 H :    0.043696
   8 H :    0.043696
   9 H :    0.043696
  10 H :    0.043696
  11 H :    0.043696

-------------------------------
LOEWDIN REDUCED ORBITAL CHARGES
-------------------------------
  0 C s       :     3.077174  s :     3.077174
      pz      :     0.959950  p :     2.827674
      px      :     0.933188
      py      :     0.934537
      dz2     :     0.009404  d :     0.133093
      dxz     :     0.008238
      dyz     :     0.016404
      dx2y2   :     0.048760
      dxy     :     0.050288
      f0      :     0.000250  f :     0.005755
      f+1     :     0.000983
      f-1     :     0.001281
      f+2     :     0.000571
      f-2     :     0.000290
      f+3     :     0.001312
      f-3     :     0.001067

  1 C s       :     3.077174  s :     3.077174
      pz      :     0.959950  p :     2.827674
      px      :     0.933188
      py      :     0.934537
      dz2     :     0.009404  d :     0.133093
      dxz     :     0.008238
      dyz     :     0.016404
      dx2y2   :     0.048760
      dxy     :     0.050288
      f0      :     0.000250  f :     0.005755
      f+1     :     0.000983
      f-1     :     0.001281
      f+2     :     0.000571
      f-2     :     0.000290
      f+3     :     0.001312
      f-3     :     0.001067

  2 C s       :     3.077174  s :     3.077174
      pz      :     0.959950  p :     2.827674
      px      :     0.935211
      py      :     0.932513
      dz2     :     0.009404  d :     0.133093
      dxz     :     0.020487
      dyz     :     0.004155
      dx2y2   :     0.051052
      dxy     :     0.047995
      f0      :     0.000250  f :     0.005755
      f+1     :     0.001430
      f-1     :     0.000835
      f+2     :     0.000149
      f-2     :     0.000712
      f+3     :     0.001312
      f-3     :     0.001067

  3 C s       :     3.077174  s :     3.077174
      pz      :     0.959950  p :     2.827674
      px      :     0.933188
      py      :     0.934537
      dz2     :     0.009404  d :     0.133093
      dxz     :     0.008238
      dyz     :     0.016404
      dx2y2   :     0.048760
      dxy     :     0.050288
      f0      :     0.000250  f :     0.005755
      f+1     :     0.000983
      f-1     :     0.001281
      f+2     :     0.000571
      f-2     :     0.000290
      f+3     :     0.001312
      f-3     :     0.001067

  4 C s       :     3.077174  s :     3.077174
      pz      :     0.959950  p :     2.827674
      px      :     0.933188
      py      :     0.934537
      dz2     :     0.009404  d :     0.133093
      dxz     :     0.008238
      dyz     :     0.016404
      dx2y2   :     0.048760
      dxy     :     0.050288
      f0      :     0.000250  f :     0.005755
      f+1     :     0.000983
      f-1     :     0.001281
      f+2     :     0.000571
      f-2     :     0.000290
      f+3     :     0.001312
      f-3     :     0.001067

  5 C s       :     3.077174  s :     3.077174
      pz      :     0.959950  p :     2.827674
      px      :     0.935211
      py      :     0.932513
      dz2     :     0.009404  d :     0.133093
      dxz     :     0.020487
      dyz     :     0.004155
      dx2y2   :     0.051052
      dxy     :     0.047995
      f0      :     0.000250  f :     0.005755
      f+1     :     0.001430
      f-1     :     0.000835
      f+2     :     0.000149
      f-2     :     0.000712
      f+3     :     0.001312
      f-3     :     0.001067

  6 H s       :     0.890149  s :     0.890149
      pz      :     0.013308  p :     0.060741
      px      :     0.031189
      py      :     0.016245
      dz2     :     0.000879  d :     0.005414
      dxz     :     0.000741
      dyz     :     0.000248
      dx2y2   :     0.001384
      dxy     :     0.002161

  7 H s       :     0.890149  s :     0.890149
      pz      :     0.013308  p :     0.060741
      px      :     0.008773
      py      :     0.038661
      dz2     :     0.000879  d :     0.005414
      dxz     :     0.000002
      dyz     :     0.000988
      dx2y2   :     0.002550
      dxy     :     0.000995

  8 H s       :     0.890149  s :     0.890149
      pz      :     0.013308  p :     0.060741
      px      :     0.031189
      py      :     0.016245
      dz2     :     0.000879  d :     0.005414
      dxz     :     0.000741
      dyz     :     0.000248
      dx2y2   :     0.001384
      dxy     :     0.002161

  9 H s       :     0.890149  s :     0.890149
      pz      :     0.013308  p :     0.060741
      px      :     0.031189
      py      :     0.016245
      dz2     :     0.000879  d :     0.005414
      dxz     :     0.000741
      dyz     :     0.000248
      dx2y2   :     0.001384
      dxy     :     0.002161

 10 H s       :     0.890149  s :     0.890149
      pz      :     0.013308  p :     0.060741
      px      :     0.008773
      py      :     0.038661
      dz2     :     0.000879  d :     0.005414
      dxz     :     0.000002
      dyz     :     0.000988
      dx2y2   :     0.002550
      dxy     :     0.000995

 11 H s       :     0.890149  s :     0.890149
      pz      :     0.013308  p :     0.060741
      px      :     0.031189
      py      :     0.016245
      dz2     :     0.000879  d :     0.005414
      dxz     :     0.000741
      dyz     :     0.000248
      dx2y2   :     0.001384
      dxy     :     0.002161



                      *****************************
                      * MAYER POPULATION ANALYSIS *
                      *****************************

  NA   - Mulliken gross atomic population
  ZA   - Total nuclear charge
  QA   - Mulliken gross atomic charge
  VA   - Mayer's total valence
  BVA  - Mayer's bonded valence
  FA   - Mayer's free valence

  ATOM       NA         ZA         QA         VA         BVA        FA
  0 C      5.9577     6.0000     0.0423     3.6940     3.6940     0.0000
  1 C      5.9577     6.0000     0.0423     3.6940     3.6940     0.0000
  2 C      5.9577     6.0000     0.0423     3.6940     3.6940    -0.0000
  3 C      5.9577     6.0000     0.0423     3.6940     3.6940    -0.0000
  4 C      5.9577     6.0000     0.0423     3.6940     3.6940    -0.0000
  5 C      5.9577     6.0000     0.0423     3.6940     3.6940    -0.0000
  6 H      1.0423     1.0000    -0.0423     0.9788     0.9788     0.0000
  7 H      1.0423     1.0000    -0.0423     0.9788     0.9788    -0.0000
  8 H      1.0423     1.0000    -0.0423     0.9788     0.9788    -0.0000
  9 H      1.0423     1.0000    -0.0423     0.9788     0.9788    -0.0000
 10 H      1.0423     1.0000    -0.0423     0.9788     0.9788     0.0000
 11 H      1.0423     1.0000    -0.0423     0.9788     0.9788    -0.0000

  Mayer bond orders larger than 0.100000
B(  0-C ,  1-C ) :   1.2892 B(  0-C ,  5-C ) :   1.2892 B(  0-C , 11-H ) :   0.8329 
B(  1-C ,  2-C ) :   1.2892 B(  1-C ,  6-H ) :   0.8329 B(  2-C ,  3-C ) :   1.2892 
B(  2-C ,  7-H ) :   0.8329 B(  3-C ,  4-C ) :   1.2892 B(  3-C ,  8-H ) :   0.8329 
B(  4-C ,  5-C ) :   1.2892 B(  4-C ,  9-H ) :   0.8329 B(  5-C , 10-H ) :   0.8329 


-------
TIMINGS
-------

Total SCF time: 0 days 0 hours 0 min 1 sec 

Total time                  ....       1.061 sec
Sum of individual times     ....       1.028 sec  ( 96.9%)

SCF preparation             ....       0.562 sec  ( 52.9%)
Fock matrix formation       ....       0.177 sec  ( 16.6%)
  Startup                   ....       0.014 sec  (  7.7% of F)
  Split-RI-J                ....       0.144 sec  ( 81.8% of F)
Diagonalization             ....       0.000 sec  (  0.0%)
Density matrix formation    ....       0.025 sec  (  2.3%)
Total Energy calculation    ....       0.014 sec  (  1.4%)
Population analysis         ....       0.067 sec  (  6.3%)
Orbital Transformation      ....       0.039 sec  (  3.7%)
Orbital Orthonormalization  ....       0.000 sec  (  0.0%)
DIIS solution               ....       0.049 sec  (  4.6%)
SOSCF solution              ....       0.095 sec  (  8.9%)
Finished LeanSCF after   1.1 sec

Maximum memory used throughout the entire LEANSCF-calculation: 16.0 MB

-------------------------   --------------------
FINAL SINGLE POINT ENERGY      -199.538624927196
-------------------------   --------------------

                                *** OPTIMIZATION RUN DONE ***



           ************************************************************
           *        Program running with 30 parallel MPI-processes    *
           *              working on a common directory               *
           ************************************************************

------------------------------------------------------------------------------
                              ORCA PROPERTY CALCULATIONS
------------------------------------------------------------------------------

GBWName                                 ... C6H6_Opt_Geom-HFS.gbw
Number of atoms                         ...     12
Number of basis functions               ...    270
Max core memory                         ...   4000 MB

Electric properties:
Dipole moment                           ... YES
Quadrupole moment                       ...  NO
Static polarizability (Dipole/Dipole)   ...  NO
Static polarizability (Dipole/Quad.)    ...  NO
Static polarizability (Quad./Quad.)     ...  NO
Static polarizability (Velocity)        ...  NO

Atomic electric properties:
Dipole moment                           ...  NO
Quadrupole moment                       ...  NO
Static polarizability                   ...  NO

Choice of electric origin               ... Center of mass
Position of electric origin             ...     0.000000    -0.000000    -0.000000

General magnetic properties:
Magnetizability                         ...  NO

EPR properties:
g-Tensor (aka g-matrix)                 ...  NO
Zero-Field splitting spin-orbit         ...  NO
Zero-field splitting spin-spin          ...  NO
Hyperfine couplings                     ...  NO (   0 nuclei)
Quadrupole couplings                    ...  NO (   0 nuclei)
Contact density                         ...  NO (   0 nuclei)

NMR properties:
Chemical shifts                         ...  NO (   0 nuclei)
Spin-rotation constants                 ...  NO (   0 nuclei)
Spin-spin couplings                     ...  NO (   0 nuclei,    0 pairs)

Choice of magnetic origin               ... GIAO
Position of magnetic origin             ...     0.000000     0.000000     0.000000

Properties with geometric perturbations:
SCF Hessian                             ...  NO
IR spectrum                             ...  NO
VCD spectrum                            ...  NO
X-ray spectroscopy properties:
SCF XES/XAS/RIXS spectra                ...  NO


-------------
DIPOLE MOMENT
-------------

Method             : SCF
Type of density    : Electron Density
Multiplicity       :   1
Irrep              :   0
Energy             :  -199.5386249271959400 Eh
Relativity type    : 
Basis              : AO
                                X                 Y                 Z
Electronic contribution:      0.000000011       0.000000019      -0.000000000
Nuclear contribution   :     -0.000000001       0.000000002      -0.000000000
                        -----------------------------------------
Total Dipole Moment    :      0.000000010       0.000000021      -0.000000000
                        -----------------------------------------
Magnitude (a.u.)       :      0.000000023
Magnitude (Debye)      :      0.000000060



--------------------
Rotational spectrum 
--------------------
 
Rotational constants in cm-1:             0.103321             0.103321             0.051660 
Rotational constants in MHz :          3097.483206          3097.483184          1548.741598 

Dipole components along the rotational axes: 
x,y,z [a.u.] :     0.000000    -0.000000    -0.000000 
x,y,z [Debye]:     0.000000    -0.000000    -0.000000 

 

Dipole moment calculation done in   0.0 sec 

Maximum memory used throughout the entire PROP-calculation: 12.7 MB

--------------------------------
SUGGESTED CITATIONS FOR THIS RUN
--------------------------------

Below you find a list of papers that are relevant to this ORCA run
We neither can nor want to force you to cite these papers, but we appreciate if you do
You receive ORCA, which is the product of decades of hard work by many enthusiastic individuals, for free
The only thing we kindly ask in return is that you cite our papers,
We deeply appreciate it, if you show your appreciation for ORCA by not just citing the generic ORCA reference.

Please note that relegating all ORCA citations to the supporting information does *not* help us.
SI sections are not indexed - citations you put there will not count into any citation statistics
But we need these citations in order to attract the funding resources that allow us to do what we are doing

Therefore, if you are a happy ORCA user, please consider citing a few of the papers listed below in the main body of your paper

In addition to the list printed below, the program has created the file C6H6_Opt_Geom-HFS.bibtex that contains the list in bibtex format
You can import this file easily into all common literature databanks and citation aid programs


List of essential papers. We consider these as the minimum necessary citations

  1. Neese,F.
     Software update: the ORCA program system, version 5.0
     WIRES Comput. Molec. Sci., 2022 12(1)e1606
     doi.org/10.1002/wcms.1606

List of papers to cite with high priority. The work reported in these papers was absolutely
necessary for this run to complete.
Our perspective: the developers of density functionals and basis sets usually get cited in chemistry papers
Good! But without the algorithms to do something with them, the functionals or basis sets would not do anything.
Hence, in our opinion, the algorithm design and method developments papers are equally worthy of getting cited

  1. Neese,F.
     An improvement of the resolution of the identity approximation for the formation of the Coulomb matrix
     J. Comp. Chem., 2003 24(14)1740-1747
     doi.org/10.1002/jcc.10318
  2. Neese,F.
     The SHARK Integral Generation and Digestion System
     J. Comp. Chem., 2022  1-16
     doi.org/10.1002/jcc.26942

List of suggested additional citations. These are papers that are important in the 'surrounding' of 
of this run, or papers that preceded the highly important papers. If you like your results we are grateful for a citation.

  1. Neese,F.
     The ORCA program system
     WIRES Comput. Molec. Sci., 2012 2(1)73-78
     doi.org/10.1002/wcms.81
  2. Neese,F.
     Software update: the ORCA program system, version 4.0
     WIRES Comput. Molec. Sci., 2018 8(1)1-6
     doi.org/10.1002/wcms.1327
  3. Neese,F.; Wennmohs,F.; Becker,U.; Riplinger,C.
     The ORCA quantum chemistry program package
     J. Chem. Phys., 2020 152 Art. No. L224108
     doi.org/10.1063/5.0004608

List of optional additional citations

  1. Neese,F.
     Approximate second-order SCF convergence for spin unrestricted wavefunctions
     Chem. Phys. Lett., 2000 325(1-3)93-98
     doi.org/10.1016/s0009-2614(00)00662-x

Timings for individual modules:

Sum of individual times          ...       97.738 sec (=   1.629 min)
Startup calculation              ...       24.408 sec (=   0.407 min)  25.0 %
SCF iterations                   ...       53.761 sec (=   0.896 min)  55.0 %
Property calculations            ...        0.956 sec (=   0.016 min)   1.0 %
SCF Gradient evaluation          ...       18.539 sec (=   0.309 min)  19.0 %
Geometry relaxation              ...        0.074 sec (=   0.001 min)   0.1 %
                             ****ORCA TERMINATED NORMALLY****
TOTAL RUN TIME: 0 days 0 hours 1 minutes 52 seconds 216 msec
