
                                 *****************
                                 * O   R   C   A *
                                 *****************

                                            #,                                       
                                            ###                                      
                                            ####                                     
                                            #####                                    
                                            ######                                   
                                           ########,                                 
                                     ,,################,,,,,                         
                               ,,#################################,,                 
                          ,,##########################################,,             
                       ,#########################################, ''#####,          
                    ,#############################################,,   '####,        
                  ,##################################################,,,,####,       
                ,###########''''           ''''###############################       
              ,#####''   ,,,,##########,,,,          '''####'''          '####       
            ,##' ,,,,###########################,,,                        '##       
           ' ,,###''''                  '''############,,,                           
         ,,##''                                '''############,,,,        ,,,,,,###''
      ,#''                                            '''#######################'''  
     '                                                          ''''####''''         
             ,#######,   #######,   ,#######,      ##                                
            ,#'     '#,  ##    ##  ,#'     '#,    #''#        ,####,   ,####,        
            ##       ##  ##   ,#'  ##            #'  '#       #'       #'  '#        
            ##       ##  #######   ##           ,######,      #####,   #    #        
            '#,     ,#'  ##    ##  '#,     ,#' ,#      #,     #,   #   #,  ,#        
             '#######'   ##     ##  '#######'  #'      '#     '####' # '####'        



                #########################################################
                #                        -***-                          #
                #          Department of theory and spectroscopy        #
                #                                                       #
                #                      Frank Neese                      #
                #                                                       #
                #     Directorship, Architecture, Infrastructure        #
                #                    SHARK, DRIVERS                     #
                #        Core code/Algorithms in most modules           #
                #                                                       #
                #        Max Planck Institute fuer Kohlenforschung      #
                #                Kaiser Wilhelm Platz 1                 #
                #                 D-45470 Muelheim/Ruhr                 #
                #                      Germany                          #
                #                                                       #
                #                  All rights reserved                  #
                #                        -***-                          #
                #########################################################


                         Program Version 6.0.1  -  RELEASE   -


 With contributions from (in alphabetic order):
[Max-Planck-Institut fuer Kohlenforschung]                               
  Daniel Aravena         : Magnetic Suceptibility                        
  Michael Atanasov       : Ab Initio Ligand Field Theory (pilot matlab implementation)
  Alexander A. Auer      : GIAO ZORA, VPT2 properties, NMR spectrum      
  Ute Becker             : All parallelization in ORCA, NUMFREQ, NUMCALC 
  Giovanni Bistoni       : ED, misc. LED, open-shell LED, HFLD           
  Martin Brehm           : Molecular dynamics                            
  Dmytro Bykov           : pre 5.0 version of the SCF Hessian            
  Marcos Casanova-Páez   : Triplet and SCS-CIS(D). UHF-(DLPNO)-IP/EA/STEOM-CCSD. UHF-CVS-IP/STEOM-CCSD   
  Vijay G. Chilkuri      : MRCI spin determinant printing, contributions to CSF-ICE 
  Pauline Colinet        : FMM embedding                                 
  Dipayan Datta          : RHF DLPNO-CCSD density                        
  Achintya Kumar Dutta   : EOM-CC, STEOM-CC                              
  Nicolas Foglia         : Exact transition moments, OPA infrastructure, MCD improvements    
  Dmitry Ganyushin       : Spin-Orbit,Spin-Spin,Magnetic field MRCI      
  Miquel Garcia-Rates    : C-PCM and meta-GGA Hessian, CCSD/C-PCM, Gaussian charge scheme 
  Tiago L. C. Gouveia    : GS-ROHF, GS-ROCIS                             
  Yang Guo               : DLPNO-NEVPT2, F12-NEVPT2, CIM, IAO-localization        
  Andreas Hansen         : Spin unrestricted coupled pair/coupled cluster methods 
  Ingolf Harden          : AUTO-CI MPn and infrastructure                
  Benjamin Helmich-Paris : MC-RPA, TRAH-(SCF,CASSCF), AVAS, COSX integrals, SCF dyn. polar. 
  Lee Huntington         : MR-EOM, pCC                                   
  Robert Izsak           : Overlap fitted RIJCOSX, COSX-SCS-MP3, EOM     
  Riya Kayal             : Wick's Theorem for AUTO-CI, AUTO-CI UHF-CCSDT 
  Emily Kempfer          : AUTO-CI, RHF CISDT and CCSDT                  
  Christian Kollmar      : KDIIS, OOCD, Brueckner-CCSD(T), CCSD density, CASPT2, CASPT2-K, improved NEVPT2 
  Axel Koslowski         : Symmetry handling                             
  Simone Kossmann        : meta-GGA functionals, TD-DFT gradient, OOMP2, (MP2 Hessian; deprecated post 5.0) 
  Lucas Lang             : DCDCAS                                        
  Marvin Lechner         : AUTO-CI (C++ implementation), FIC-MRCC        
  Spencer Leger          : CASSCF response                               
  Dagmar Lenk            : GEPOL surface, SMD, ORCA-2-JSON               
  Dimitrios Liakos       : Extrapolation schemes; Compound Job, initial MDCI parallelization 
  Dimitrios Manganas     : Further ROCIS development; embedding schemes. LFT, Crystal Embedding 
  Dimitrios Pantazis     : SARC Basis sets                               
  Anastasios Papadopoulos: AUTO-CI, single reference methods and gradients 
  Taras Petrenko         : pre 6.0 DFT Hessian and TD-DFT gradient, (ASA, deprecated), ECA, 1-Electron XAS/XES, NRVS 
  Peter Pinski           : DLPNO-MP2, DLPNO-MP2 Gradient                 
  Christoph Reimann      : Effective Core Potentials                     
  Marius Retegan         : Local ZFS, SOC                                
  Christoph Riplinger    : Optimizer, TS searches, QM/MM, DLPNO-CCSD(T), (RO)-DLPNO pert. Triples 
  Michael Roemelt        : Original ROCIS implementation                 
  Masaaki Saitow         : Open-shell DLPNO-CCSD energy and density      
  Barbara Sandhoefer     : DKH picture change effects                    
  Kantharuban Sivalingam : CASSCF convergence/infrastructure, NEVPT2 and variants, FIC-MRCI 
  Bernardo de Souza      : ESD, SOC TD-DFT                               
  Georgi L. Stoychev     : AutoAux, RI-MP2 NMR, DLPNO-MP2 response, X2C  
  Van Anh Tran           : RI-MP2 g-tensors                              
  Willem Van den Heuvel  : Paramagnetic NMR                              
  Zikuan Wang            : NOTCH, Electric field optimization            
  Frank Wennmohs         : Technical directorship and infrastructure     
  Hang Xu                : AUTO-CI-Response properties                   
                                                                         
[FACCTs GmbH]                                                            
  Markus Bursch, Miquel Garcia-Rates, Christoph Riplinger, Bernardo de Souza, Georgi L. Stoychev 
                                                                 
  APM, Basis sets (HGBS, AHGBS, def-TZVP (Ac-Lr), def2-XVPD (La-Lu)), CI-OPT, improved COSX, DLPNO-Multilevel,           
  DOCKER, DRACO, updates on ESD, GOAT, IRC, LR-CPCM, MBIS, meta-GGA TD-DFT gradient, ML-optimized integration grids, 
  MM, NACMEs, nearIR, NEB, NEB-TS, NL-DFT gradient (VV10), 2- and 3-layer-ONIOM, interface openCOSMO-RS, QMMM,   
  Crystal-QMMM, SF, symmetry and pop. for TD-DFT, r2SCAN hybrids, SOLVATOR                                   
                                                                         
[Other institutions]                                                     
  V. Asgeirsson          : NEB                                           
  Christoph Bannwarth    : sTDA-DFT, sTD-DFT, PBEh-3c, B97-3c, D3        
  Sebastian Ehlert       : rSCAN, r2SCAN, r2SCAN-3c, D4, dhf basis sets  
  Marvin Friede          : D4 for Fr, Ra, Ac-Lr                          
  Lars Goerigk           : TD-DFT with DH, B97 family of functionals     
  Stefan Grimme          : VdW corrections, initial TS optimization, DFT functionals, gCP, sTDA/sTD-DF 
  Waldemar Hujo          : DFT-NL                                        
  H. Jonsson             : NEB                                           
  Holger Kruse           : gCP                                           
  Marcel Mueller         : wB97X-3c, vDZP basis set                      
  Hagen Neugebauer       : wr2SCAN                                       
  Tobias Risthaus        : range-separated hybrid DFT                    
  Lukas Wittmann         : regularized MP2, r2SCAN double-hybrids, wr2SCAN        
                                                                         
We gratefully acknowledge several colleagues who have allowed us to      
interface, adapt or use parts of their codes:                            
  Ed Valeev, F. Pavosevic, A. Kumar             : LibInt (2-el integral package), F12 methods 
  Garnet Chan, S. Sharma, J. Yang, R. Olivares  : DMRG                   
  Ulf Ekstrom                                   : XCFun DFT Library      
  Mihaly Kallay                                 : mrcc  (arbitrary order and MRCC methods)
  Frank Weinhold                                : gennbo (NPA and NBO analysis)           
  Simon Mueller                                 : openCOSMO-RS                            
  Christopher J. Cramer and Donald G. Truhlar   : smd solvation model                     
  S Lehtola, MJT Oliveira, MAL Marques          : LibXC Library                           
  Liviu Ungur et al                             : ANISO software                          


 Your calculation uses the libint2 library for the computation of 2-el integrals
 For citations please refer to: http://libint.valeyev.net

 Your ORCA version has been built with support for libXC version: 6.2.2
 For citations please refer to: https://libxc.gitlab.io

 This ORCA versions uses:
   CBLAS   interface :  Fast vector & matrix operations
   LAPACKE interface :  Fast linear algebra routines
   Shared memory     :  Shared parallel matrices


NOTE: MaxCore=4000 MB was set to SCF,MP2,MDCI,CIPSI,MRCI and CIS
      => If you want to overwrite this, your respective input block should be placed after the MaxCore statement
Warning: RI is on but no J-basis has been assigned. Assigning Def2/J (nothing to worry about!)
================================================================================

----- Orbital basis set information -----
Your calculation utilizes the basis: def2-TZVPP
   F. Weigend and R. Ahlrichs, Phys. Chem. Chem. Phys. 7, 3297 (2005).

----- AuxJ basis set information -----
Your calculation utilizes the auxiliary basis: def2/J
   F. Weigend, Phys. Chem. Chem. Phys. 8, 1057 (2006).

================================================================================
                                        WARNINGS
                       Please study these warnings very carefully!
================================================================================


WARNING: Analytical and numerical frequencies both set to true
  ===> : Disabling Anfreq

WARNING: Geometry Optimization
  ===> : Switching off AutoStart
         For restart on a previous wavefunction, please use MOREAD

================================================================================
                                       INPUT FILE
================================================================================
NAME = HCl_Freq-B3LYP.inp
|  1> ! B3LYP def2-TZVPP Opt TightOpt VeryTightSCF
|  2> 
|  3> ! Freq
|  4> ! NumFreq
|  5> 
|  6> %scf
|  7>    MaxIter 400          # Máximo de iteraciones permitidas para el SCF
|  8> end
|  9> 
| 10> %geom
| 11>    TolRMSD 1.0e-5
| 12>    TolMAXD 1.0e-4
| 13>    TolRMSG 1.0e-5
| 14>    TolMAXG 1.0e-4
| 15> end
| 16> 
| 17> %pal
| 18>    nprocs 1
| 19> end
| 20> 
| 21> 
| 22> %MaxCore 4000            # Memoria máxima por núcleo (en MB)
| 23> 
| 24> * xyz 0 1
| 25> Cl     0.000000    0.000000    0.074144
| 26> H      0.000000    0.000000   -1.208014
| 27> **                         ****END OF INPUT****
================================================================================

                       *****************************
                       * Geometry Optimization Run *
                       *****************************

Geometry optimization settings:
Update method            Update   .... BFGS
Choice of coordinates    CoordSys .... (2022) Redundant Internals
Initial Hessian          InHess   .... Almloef's Model
Max. no of cycles        MaxIter  .... 50

Convergence Tolerances:
Energy Change            TolE     ....  1.0000e-06 Eh
Max. Gradient            TolMAXG  ....  1.0000e-04 Eh/bohr
RMS Gradient             TolRMSG  ....  1.0000e-05 Eh/bohr
Max. Displacement        TolMAXD  ....  1.0000e-04 bohr
RMS Displacement         TolRMSD  ....  1.0000e-05 bohr
Strict Convergence                .... False

------------------------------------------------------------------------------
                        ORCA OPTIMIZATION COORDINATE SETUP
------------------------------------------------------------------------------

The optimization will be done in redundant internal coordinates (2022)
Making redundant internal coordinates   ...  (2022 redundants) done
Evaluating the initial hessian          ...  (Almloef) done
Evaluating the coordinates              ...  done
Calculating the B-matrix                .... done
Calculating the G-matrix                .... done
Diagonalizing the G-matrix              .... done
The first mode is                       ....    0
The number of degrees of freedom        ....    1

    -----------------------------------------------------------------
                    Redundant Internal Coordinates


    -----------------------------------------------------------------
         Definition                    Initial Value    Approx d2E/dq
    -----------------------------------------------------------------
      1. B(H   1,Cl  0)                  1.2822         0.398881   
    -----------------------------------------------------------------

Number of atoms                         .... 2
Number of degrees of freedom            .... 1


         *************************************************************
         *                GEOMETRY OPTIMIZATION CYCLE   1            *
         *************************************************************
---------------------------------
CARTESIAN COORDINATES (ANGSTROEM)
---------------------------------
  Cl     0.000000    0.000000    0.074144
  H      0.000000    0.000000   -1.208014

----------------------------
CARTESIAN COORDINATES (A.U.)
----------------------------
  NO LB      ZA    FRAG     MASS         X           Y           Z
   0 Cl   17.0000    0    35.453    0.000000    0.000000    0.140112
   1 H     1.0000    0     1.008    0.000000    0.000000   -2.282816

--------------------------------
INTERNAL COORDINATES (ANGSTROEM)
--------------------------------
 Cl     0   0   0     0.000000000000     0.00000000     0.00000000
 H      1   0   0     1.282158000000     0.00000000     0.00000000

---------------------------
INTERNAL COORDINATES (A.U.)
---------------------------
 Cl     0   0   0     0.000000000000     0.00000000     0.00000000
 H      1   0   0     2.422927480416     0.00000000     0.00000000

---------------------
BASIS SET INFORMATION
---------------------
There are 2 groups of distinct atoms

 Group   1 Type Cl  : 14s9p3d1f contracted to 5s5p3d1f pattern {73211/51111/111/1}
 Group   2 Type H   : 5s2p1d contracted to 3s2p1d pattern {311/11/1}

Atom   0Cl   basis set group =>   1
Atom   1H    basis set group =>   2
---------------------------------
AUXILIARY/J BASIS SET INFORMATION
---------------------------------
There are 2 groups of distinct atoms

 Group   1 Type Cl  : 14s5p5d2f1g contracted to 8s4p3d1f1g pattern {71111111/2111/311/2/1}
 Group   2 Type H   : 5s2p1d contracted to 3s1p1d pattern {311/2/1}

Atom   0Cl   basis set group =>   1
Atom   1H    basis set group =>   2
------------------------------------------------------------------------------
                             ORCA STARTUP CALCULATIONS
                           -- RI-GTO INTEGRALS CHOSEN --
------------------------------------------------------------------------------
------------------------------------------------------------------------------
                   ___                                                        
                  /   \      - P O W E R E D   B Y -                         
                 /     \                                                     
                 |  |  |   _    _      __       _____    __    __             
                 |  |  |  | |  | |    /  \     |  _  \  |  |  /  |          
                  \  \/   | |  | |   /    \    | | | |  |  | /  /          
                 / \  \   | |__| |  /  /\  \   | |_| |  |  |/  /          
                |  |  |   |  __  | /  /__\  \  |    /   |      \           
                |  |  |   | |  | | |   __   |  |    \   |  |\   \          
                \     /   | |  | | |  |  |  |  | |\  \  |  | \   \       
                 \___/    |_|  |_| |__|  |__|  |_| \__\ |__|  \__/        
                                                                              
                      - O R C A' S   B I G   F R I E N D -                    
                                      &                                       
                       - I N T E G R A L  F E E D E R -                       
                                                                              
 v1 FN, 2020, v2 2021, v3 2022-2024                                           
------------------------------------------------------------------------------


----------------------
SHARK INTEGRAL PACKAGE
----------------------

Number of atoms                             ...      2
Number of basis functions                   ...     56
Number of shells                            ...     20
Maximum angular momentum                    ...      3
Integral batch strategy                     ... SHARK/LIBINT Hybrid
RI-J (if used) integral strategy            ... SPLIT-RIJ (Revised 2003 algorithm where possible)
Printlevel                                  ...      1
Contraction scheme used                     ... SEGMENTED contraction
Prescreening option                         ... SCHWARTZ
   Thresh                                   ... 1.000e-12
   Tcut                                     ... 1.000e-14
   Tpresel                                  ... 1.000e-14 
Coulomb Range Separation                    ... NOT USED
Exchange Range Separation                   ... NOT USED
Multipole approximations                    ... NOT USED
Finite Nucleus Model                        ... NOT USED
CABS basis                                  ... NOT available
Auxiliary Coulomb fitting basis             ... AVAILABLE
   # of basis functions in Aux-J            ...     62
   # of shells in Aux-J                     ...     22
   Maximum angular momentum in Aux-J        ...      4
Auxiliary J/K fitting basis                 ... NOT available
Auxiliary Correlation fitting basis         ... NOT available
Auxiliary 'external' fitting basis          ... NOT available

Checking pre-screening integrals            ... done (  0.0 sec) Dimension = 20
Check shell pair data                       ... done (  0.0 sec)
Shell pair information
Shell pair cut-off parameter TPreSel        ...   1.0e-14
Total number of shell pairs                 ...       210
Shell pairs after pre-screening             ...       210
Total number of primitive shell pairs       ...       668
Primitive shell pairs kept                  ...       654
          la=0 lb=0:     36 shell pairs
          la=1 lb=0:     56 shell pairs
          la=1 lb=1:     28 shell pairs
          la=2 lb=0:     32 shell pairs
          la=2 lb=1:     28 shell pairs
          la=2 lb=2:     10 shell pairs
          la=3 lb=0:      8 shell pairs
          la=3 lb=1:      7 shell pairs
          la=3 lb=2:      4 shell pairs
          la=3 lb=3:      1 shell pairs

Calculating one electron integrals          ... done (  0.0 sec)
Calculating RI/J V-Matrix + Cholesky decomp.... done (  0.0 sec)
Calculating Nuclear repulsion               ... done (  0.0 sec) ENN=      7.016305744768 Eh

Diagonalization of the overlap matrix:
Smallest eigenvalue                        ... 4.016e-03
Time for diagonalization                   ...    0.000 sec
Threshold for overlap eigenvalues          ... 1.000e-07
Number of eigenvalues below threshold      ... 0
Time for construction of square roots      ...    0.001 sec
Total time needed                          ...    0.006 sec

-------------------
DFT GRID GENERATION
-------------------

General Integration Accuracy     IntAcc      ... 4.388
Radial Grid Type                 RadialGrid  ... OptM3 with GC (2021)
Angular Grid (max. ang.)         AngularGrid ... 4 (Lebedev-302)
Angular grid pruning method      GridPruning ... 4 (adaptive)
Weight generation scheme         WeightScheme... mBecke (2022)
Basis function cutoff            BFCut       ... 1.0000e-12
Integration weight cutoff        WCut        ... 1.0000e-14
Partially contracted basis set               ... off
Rotationally invariant grid construction     ... off
Angular grids for H and He will be reduced by one unit

Total number of grid points                  ...    10685
Total number of batches                      ...      168
Average number of points per batch           ...       63
Average number of grid points per atom       ...     5343

--------------------
COSX GRID GENERATION
--------------------

GRIDX 1
-------
General Integration Accuracy     IntAcc      ... 3.816
Radial Grid Type                 RadialGrid  ... OptM3 with GC (2021)
Angular Grid (max. ang.)         AngularGrid ... 1 (Lebedev-50)
Angular grid pruning method      GridPruning ... 4 (adaptive)
Weight generation scheme         WeightScheme... mBecke (2022)
Basis function cutoff            BFCut       ... 1.0000e-12
Integration weight cutoff        WCut        ... 1.0000e-14
Partially contracted basis set               ... on
Rotationally invariant grid construction     ... off
Angular grids for H and He will be reduced by one unit

Total number of grid points                  ...     2412
Total number of batches                      ...       20
Average number of points per batch           ...      120
Average number of grid points per atom       ...     1206
UseSFitting                                  ... on

GRIDX 2
-------
General Integration Accuracy     IntAcc      ... 4.020
Radial Grid Type                 RadialGrid  ... OptM3 with GC (2021)
Angular Grid (max. ang.)         AngularGrid ... 2 (Lebedev-110)
Angular grid pruning method      GridPruning ... 4 (adaptive)
Weight generation scheme         WeightScheme... mBecke (2022)
Basis function cutoff            BFCut       ... 1.0000e-12
Integration weight cutoff        WCut        ... 1.0000e-14
Partially contracted basis set               ... on
Rotationally invariant grid construction     ... off
Angular grids for H and He will be reduced by one unit

Total number of grid points                  ...     2781
Total number of batches                      ...       23
Average number of points per batch           ...      120
Average number of grid points per atom       ...     1391
UseSFitting                                  ... on

GRIDX 3
-------
General Integration Accuracy     IntAcc      ... 4.338
Radial Grid Type                 RadialGrid  ... OptM3 with GC (2021)
Angular Grid (max. ang.)         AngularGrid ... 3 (Lebedev-194)
Angular grid pruning method      GridPruning ... 4 (adaptive)
Weight generation scheme         WeightScheme... mBecke (2022)
Basis function cutoff            BFCut       ... 1.0000e-12
Integration weight cutoff        WCut        ... 1.0000e-14
Partially contracted basis set               ... on
Rotationally invariant grid construction     ... off
Angular grids for H and He will be reduced by one unit

Total number of grid points                  ...     6811
Total number of batches                      ...       54
Average number of points per batch           ...      126
Average number of grid points per atom       ...     3406
UseSFitting                                  ... on
Initializing property integral containers    ... done (  0.0 sec)

SHARK setup successfully completed in   0.2 seconds

Maximum memory used throughout the entire STARTUP-calculation: 15.1 MB
-------------------------------------------------------------------------------
                                 ORCA GUESS
                   Start orbitals & Density for SCF / CASSCF
-------------------------------------------------------------------------------

------------
SCF SETTINGS
------------
Hamiltonian:
 Density Functional     Method          .... DFT(GTOs)
 Exchange Functional    Exchange        .... B88
   X-Alpha parameter    XAlpha          ....  0.666667
   Becke's b parameter  XBeta           ....  0.004200
 Correlation Functional Correlation     .... LYP
 LDA part of GGA corr.  LDAOpt          .... VWN-5
 Gradients option       PostSCFGGA      .... off
 Hybrid DFT is turned on
   Fraction HF Exchange ScalHFX         ....  0.200000
   Scaling of DF-GGA-X  ScalDFX         ....  0.720000
   Scaling of DF-GGA-C  ScalDFC         ....  0.810000
   Scaling of DF-LDA-C  ScalLDAC        ....  1.000000
   Perturbative correction              ....  0.000000
   NL short-range parameter             ....  4.800000
 RI-approximation to the Coulomb term is turned on
   Number of AuxJ basis functions       .... 62
   RIJ-COSX (HFX calculated with COS-X)).... on


General Settings:
 Integral files         IntName         .... HCl_Freq-B3LYP
 Hartree-Fock type      HFTyp           .... RHF
 Total Charge           Charge          ....    0
 Multiplicity           Mult            ....    1
 Number of Electrons    NEL             ....   18
 Basis Dimension        Dim             ....   56
 Nuclear Repulsion      ENuc            ....      7.0163057448 Eh

Convergence Acceleration:
 AO-DIIS                CNVDIIS         .... on
   Start iteration      DIISMaxIt       ....    12
   Startup error        DIISStart       ....  0.200000
   # of expansion vecs  DIISMaxEq       ....     5
   Bias factor          DIISBfac        ....   1.050
   Max. coefficient     DIISMaxC        ....  10.000
 MO-DIIS                CNVKDIIS        .... off
 Trust-Rad. Augm. Hess. CNVTRAH         .... auto
   Auto Start mean grad. ratio tolernc. ....  1.125000
   Auto Start start iteration           ....    50
   Auto Start num. interpolation iter.  ....    10
   Max. Number of Micro iterations      ....    24
   Max. Number of Macro iterations      .... Maxiter - #DIIS iter
   Number of Davidson start vectors     ....     2
   Converg. threshold    (grad. norm)   ....   2.000e-06
   Grad. Scal. Fac. for Micro threshold ....   0.100
   Minimum threshold for Micro iter.    ....   1.000e-02
   NR start threshold (gradient norm)   ....   1.000e-04
   Initial trust radius                 ....   0.400
   Minimum AH scaling param. (alpha)    ....   1.000
   Maximum AH scaling param. (alpha)    .... 1000.000
   Quad. conv. algorithm                .... NR
   White noise on init. David. guess    .... on
   Maximum white noise                  ....   0.010
   Pseudo random numbers                .... off
   Inactive MOs                         .... canonical
   Orbital update algorithm             .... Taylor
   Preconditioner                       .... Diag
   Full preconditioner red. dimension   ....   250
 SOSCF                  CNVSOSCF        .... on
   Start iteration      SOSCFMaxIt      ....   150
   Startup grad/error   SOSCFStart      ....  0.003300
   Hessian update       SOSCFHessUp     .... L-BFGS
 Level Shifting         CNVShift        .... on
   Level shift para.    LevelShift      ....    0.2500
   Turn off err/grad.   ShiftErr        ....    0.0010
 Zerner damping         CNVZerner       .... off
 Static damping         CNVDamp         .... on
   Fraction old density DampFac         ....    0.7000
   Max. Damping (<1)    DampMax         ....    0.9800
   Min. Damping (>=0)   DampMin         ....    0.0000
   Turn off err/grad.   DampErr         ....    0.1000

SCF Procedure:
 Maximum # iterations   MaxIter         ....   400
 SCF integral mode      SCFMode         .... Direct
   Integral package                     .... SHARK and LIBINT hybrid scheme
 Reset frequency        DirectResetFreq ....    20
 Integral Threshold     Thresh          ....  1.000e-12 Eh
 Primitive CutOff       TCut            ....  1.000e-14 Eh

Convergence Tolerance:
 Convergence Check Mode ConvCheckMode   .... Total+1el-Energy
 Convergence forced     ConvForced      .... 0
 Energy Change          TolE            ....  1.000e-09 Eh
 1-El. energy change                    ....  1.000e-06 Eh
 Orbital Gradient       TolG            ....  2.000e-06
 Orbital Rotation angle TolX            ....  2.000e-06
 DIIS Error             TolErr          ....  1.000e-08

------------------------------
INITIAL GUESS: MODEL POTENTIAL
------------------------------
Loading Hartree-Fock densities                     ... done
Calculating cut-offs                               ... done
Initializing the effective Hamiltonian             ... done
Setting up the integral package (SHARK)            ... done
Starting the Coulomb interaction                   ... done (   0.0 sec)
Making the grid                                    ... done (   0.0 sec)
Mapping shells                                     ... done
Starting the XC term evaluation                    ... done (   0.0 sec)
  promolecular density results
     # of electrons  =     17.999586661
     EX              =    -27.818171954
     EC              =     -0.724830161
     EX+EC           =    -28.543002116
Transforming the Hamiltonian                       ... done (   0.0 sec)
Diagonalizing the Hamiltonian                      ... done (   0.0 sec)
Back transforming the eigenvectors                 ... done (   0.0 sec)
Now organizing SCF variables                       ... done
                      ------------------
                      INITIAL GUESS DONE (   0.1 sec)
                      ------------------
             **** ENERGY FILE WAS UPDATED (HCl_Freq-B3LYP.en.tmp) ****
Finished Guess after   0.1 sec
Maximum memory used throughout the entire GUESS-calculation: 7.3 MB

-------------------------------------------------------------------------------------------
                                      ORCA LEAN-SCF
                              memory conserving SCF solver
-------------------------------------------------------------------------------------------

----------------------------------------D-I-I-S--------------------------------------------
Iteration    Energy (Eh)           Delta-E    RMSDP     MaxDP     DIISErr   Damp  Time(sec)
-------------------------------------------------------------------------------------------
               ***  Starting incremental Fock matrix formation  ***
    1    -460.7597944103543455     0.00e+00  1.68e-03  3.85e-02  7.17e-02  0.700   0.2
    2    -460.7631003891221440    -3.31e-03  1.21e-03  2.48e-02  4.27e-02  0.700   0.2
                               ***Turning on AO-DIIS***
    3    -460.7646583904167414    -1.56e-03  4.19e-04  6.59e-03  2.15e-02  0.700   0.2
    4    -460.7655471722665084    -8.89e-04  6.83e-04  1.07e-02  1.35e-02  0.000   0.2
                              *** Initializing SOSCF ***
---------------------------------------S-O-S-C-F--------------------------------------
Iteration    Energy (Eh)           Delta-E    RMSDP     MaxDP     MaxGrad    Time(sec)
--------------------------------------------------------------------------------------
    5    -460.7674311640332121    -1.88e-03  6.15e-05  1.03e-03  1.34e-03     0.2
               *** Restarting incremental Fock matrix formation ***
    6    -460.7674352502391457    -4.09e-06  1.93e-05  2.85e-04  1.31e-04     0.1
    7    -460.7674352892661886    -3.90e-08  7.45e-06  1.06e-04  1.09e-04     0.2
    8    -460.7674353740356423    -8.48e-08  1.43e-06  3.34e-05  1.50e-05     0.2
    9    -460.7674353744092173    -3.74e-10  6.30e-07  1.44e-05  4.42e-06     0.1
                 **** Energy Check signals convergence ****

               *****************************************************
               *                     SUCCESS                       *
               *           SCF CONVERGED AFTER   9 CYCLES          *
               *****************************************************

Recomputing exchange energy using gridx3       ... done (    0.125 sec)
Old exchange energy                            :     -5.575502751 Eh
New exchange energy                            :     -5.575504531 Eh
Exchange energy change after final integration :     -0.000001780 Eh
Total energy after final integration           :   -460.767437155 Eh
             **** ENERGY FILE WAS UPDATED (HCl_Freq-B3LYP.en.tmp) ****

----------------
TOTAL SCF ENERGY
----------------

Total Energy       :       -460.76743715456342 Eh          -12538.11939 eV

Components:
Nuclear Repulsion  :          7.01630574476781 Eh             190.92339 eV
Electronic Energy  :       -467.78374111917702 Eh          -12729.04273 eV
One Electron Energy:       -650.01592895705676 Eh          -17687.83266 eV
Two Electron Energy:        182.23218783787974 Eh            4958.78993 eV

Virial components:
Potential Energy   :       -920.93003469078303 Eh          -25059.78026 eV
Kinetic Energy     :        460.16259753621955 Eh           12521.66087 eV
Virial Ratio       :          2.00131440412928

DFT components:
N(Alpha)           :        9.000000191683 electrons
N(Beta)            :        9.000000191683 electrons
N(Total)           :       18.000000383366 electrons
E(X)               :      -22.125897333647 Eh       
E(C)               :       -0.852748590536 Eh       
E(XC)              :      -22.978645924183 Eh       

---------------
SCF CONVERGENCE
---------------

  Last Energy change         ...    3.7357e-10  Tolerance :   1.0000e-09
  Last MAX-Density change    ...    1.4399e-05  Tolerance :   1.0000e-08
  Last RMS-Density change    ...    6.3022e-07  Tolerance :   1.0000e-09
  Last DIIS Error            ...    1.3387e-03  Tolerance :   1.0000e-08
  Last Orbital Gradient      ...    4.4213e-06  Tolerance :   2.0000e-06
  Last Orbital Rotation      ...    3.5162e-06  Tolerance :   2.0000e-06


----------------
ORBITAL ENERGIES
----------------

  NO   OCC          E(Eh)            E(eV) 
   0   2.0000    -101.528787     -2762.7388 
   1   2.0000      -9.461384      -257.4573 
   2   2.0000      -7.222644      -196.5381 
   3   2.0000      -7.214393      -196.3136 
   4   2.0000      -7.214393      -196.3136 
   5   2.0000      -0.843420       -22.9506 
   6   2.0000      -0.471496       -12.8301 
   7   2.0000      -0.331706        -9.0262 
   8   2.0000      -0.331706        -9.0262 
   9   0.0000       0.000644         0.0175 
  10   0.0000       0.179260         4.8779 
  11   0.0000       0.335657         9.1337 
  12   0.0000       0.341385         9.2896 
  13   0.0000       0.341385         9.2896 
  14   0.0000       0.351107         9.5541 
  15   0.0000       0.351107         9.5541 
  16   0.0000       0.421710        11.4753 
  17   0.0000       0.421717        11.4755 
  18   0.0000       0.599113        16.3027 
  19   0.0000       0.731839        19.9143 
*Only the first 10 virtual orbitals were printed.

                    ********************************
                    * MULLIKEN POPULATION ANALYSIS *
                    ********************************

-----------------------
MULLIKEN ATOMIC CHARGES
-----------------------
   0 Cl:   -0.178958
   1 H :    0.178958
Sum of atomic charges:   -0.0000000

--------------------------------
MULLIKEN REDUCED ORBITAL CHARGES
--------------------------------
  0 Cls       :     5.927754  s :     5.927754
      pz      :     3.268132  p :    11.217964
      px      :     3.974916
      py      :     3.974916
      dz2     :     0.027764  d :     0.030531
      dxz     :     0.001384
      dyz     :     0.001384
      dx2y2   :     0.000000
      dxy     :     0.000000
      f0      :     0.002343  f :     0.002709
      f+1     :     0.000183
      f-1     :     0.000183
      f+2     :     0.000000
      f-2     :    -0.000000
      f+3     :     0.000000
      f-3     :     0.000000

  1 H s       :     0.753514  s :     0.753514
      pz      :     0.019453  p :     0.064125
      px      :     0.022336
      py      :     0.022336
      dz2     :     0.001040  d :     0.003403
      dxz     :     0.001181
      dyz     :     0.001181
      dx2y2   :     0.000000
      dxy     :     0.000000



                     *******************************
                     * LOEWDIN POPULATION ANALYSIS *
                     *******************************

----------------------
LOEWDIN ATOMIC CHARGES
----------------------
   0 Cl:    0.212684
   1 H :   -0.212684

-------------------------------
LOEWDIN REDUCED ORBITAL CHARGES
-------------------------------
  0 Cls       :     5.597510  s :     5.597510
      pz      :     3.319482  p :    11.144824
      px      :     3.912671
      py      :     3.912671
      dz2     :     0.040162  d :     0.040525
      dxz     :     0.000182
      dyz     :     0.000182
      dx2y2   :     0.000000
      dxy     :     0.000000
      f0      :     0.004198  f :     0.004457
      f+1     :     0.000129
      f-1     :     0.000129
      f+2     :     0.000000
      f-2     :     0.000000
      f+3     :     0.000000
      f-3     :     0.000000

  1 H s       :     0.871425  s :     0.871425
      pz      :     0.149671  p :     0.297283
      px      :     0.073806
      py      :     0.073806
      dz2     :     0.017551  d :     0.043975
      dxz     :     0.013212
      dyz     :     0.013212
      dx2y2   :     0.000000
      dxy     :     0.000000



                      *****************************
                      * MAYER POPULATION ANALYSIS *
                      *****************************

  NA   - Mulliken gross atomic population
  ZA   - Total nuclear charge
  QA   - Mulliken gross atomic charge
  VA   - Mayer's total valence
  BVA  - Mayer's bonded valence
  FA   - Mayer's free valence

  ATOM       NA         ZA         QA         VA         BVA        FA
  0 Cl    17.1790    17.0000    -0.1790     1.0295     1.0295    -0.0000
  1 H      0.8210     1.0000     0.1790     1.0295     1.0295    -0.0000

  Mayer bond orders larger than 0.100000
B(  0-Cl,  1-H ) :   1.0295 

-------
TIMINGS
-------

Total SCF time: 0 days 0 hours 0 min 1 sec 

Total time                  ....       1.635 sec
Sum of individual times     ....       1.603 sec  ( 98.0%)

SCF preparation             ....       0.050 sec  (  3.1%)
Fock matrix formation       ....       1.028 sec  ( 62.9%)
  Startup                   ....       0.015 sec  (  1.5% of F)
  Split-RI-J                ....       0.069 sec  (  6.7% of F)
  Chain of spheres X        ....       0.667 sec  ( 64.9% of F)
  XC integration            ....       0.248 sec  ( 24.1% of F)
    Basis function eval.    ....       0.071 sec  ( 28.6% of XC)
    Density eval.           ....       0.038 sec  ( 15.3% of XC)
    XC-Functional eval.     ....       0.022 sec  (  8.9% of XC)
    XC-Potential eval.      ....       0.081 sec  ( 32.7% of XC)
Diagonalization             ....       0.000 sec  (  0.0%)
Density matrix formation    ....       0.171 sec  ( 10.5%)
Total Energy calculation    ....       0.075 sec  (  4.6%)
Population analysis         ....       0.027 sec  (  1.7%)
Orbital Transformation      ....       0.018 sec  (  1.1%)
Orbital Orthonormalization  ....       0.000 sec  (  0.0%)
DIIS solution               ....       0.159 sec  (  9.7%)
SOSCF solution              ....       0.075 sec  (  4.6%)
Finished LeanSCF after   1.7 sec

Maximum memory used throughout the entire LEANSCF-calculation: 6.2 MB

-------------------------   --------------------
FINAL SINGLE POINT ENERGY      -460.767437154563
-------------------------   --------------------

------------------------------------------------------------------------------
                         ORCA SCF GRADIENT CALCULATION
------------------------------------------------------------------------------

Nuc. rep. gradient        (SHARK) ... done (  0.0 sec)
HCore & Overlap gradient  (SHARK) ... done (  0.0 sec)
Split-RIJ-J gradient      (SHARK) ... done (  0.0 sec)
COSX-gradient                     ... done (  0.6 sec)
XC gradient                       ... done (  0.1 sec)

------------------
CARTESIAN GRADIENT
------------------

   1   Cl  :   -0.000000002   -0.000000001    0.000925374
   2   H   :    0.000000002    0.000000001   -0.000925374

Difference to translation invariance:
           :   -0.0000000000   -0.0000000000   -0.0000000000

Difference to rotation invariance:
           :    0.0000000024   -0.0000000049    0.0000000000

Norm of the Cartesian gradient     ...    0.0013086759
RMS gradient                       ...    0.0005342647
MAX gradient                       ...    0.0009253736

-------
TIMINGS
-------

Total SCF gradient time     ....        0.787 sec

One electron gradient       ....       0.004 sec  (  0.5%)
RI-J Coulomb gradient       ....       0.048 sec  (  6.1%)
COSX gradient               ....       0.595 sec  ( 75.6%)
XC gradient                 ....       0.140 sec  ( 17.8%)

Maximum memory used throughout the entire SCFGRAD-calculation: 8.2 MB
------------------------------------------------------------------------------
                         ORCA GEOMETRY RELAXATION STEP
------------------------------------------------------------------------------

Reading the OPT-File                    .... done
Getting information on internals        .... done
Copying old internal coords+grads       .... done
Making the new internal coordinates     .... (2022 redundants) done
Validating the new internal coordinates .... (2022 redundants) done
Calculating the B-matrix                .... done
Calculating the G,G- and P matrices     .... done
Transforming gradient to internals      .... done
Projecting the internal gradient        .... done
Number of atoms                         ....   2
Number of internal coordinates          ....   1
Current Energy                          ....  -460.767437155 Eh
Current gradient norm                   ....     0.001308676 Eh/bohr
Maximum allowed component of the step   ....  0.300
Current trust radius                    ....  0.300
Evaluating the initial hessian          ....  (Almloef) done
Projecting the Hessian                  .... done
Forming the augmented Hessian           .... done
Diagonalizing the augmented Hessian     .... done
Last element of RFO vector              ....  0.999997309
Lowest eigenvalues of augmented Hessian:
 -0.000002147
Length of the computed step             ....  0.002319912
The final length of the internal step   ....  0.002319912
Converting the step to Cartesian space:
 Initial RMS(Int)=    0.0023199121
Transforming coordinates:
 Iter   0:  RMS(Cart)=    0.0006697009 RMS(Int)=    0.0023199121
done
Storing new coordinates                 .... done

                                .--------------------.
          ----------------------|Geometry convergence|-------------------------
          Item                value                   Tolerance       Converged
          ---------------------------------------------------------------------
          RMS gradient        0.0009253736            0.0000100000      NO
          MAX gradient        0.0009253736            0.0001000000      NO
          RMS step            0.0023199121            0.0000100000      NO
          MAX step            0.0023199121            0.0001000000      NO
          ........................................................
          Max(Bonds)      0.0012      Max(Angles)    0.00
          Max(Dihed)        0.00      Max(Improp)    0.00
          ---------------------------------------------------------------------

The optimization has not yet converged - more geometry cycles are needed


    ---------------------------------------------------------------------------
                         Redundant Internal Coordinates
                            (Angstroem and degrees)

        Definition                    Value    dE/dq     Step     New-Value
    ----------------------------------------------------------------------------
     1. B(H   1,Cl  0)                1.2822  0.000925 -0.0012    1.2809   
    ----------------------------------------------------------------------------

Geometry step timings:
Preparation and reading OPT file:      0.000 s ( 0.000 %)
Internal coordinates            :      0.000 s ( 0.000 %)
B/P matrices and projection     :      0.000 s ( 0.000 %)
Hessian update/contruction      :      0.001 s (50.000 %)
Making the step                 :      0.000 s ( 0.000 %)
Converting the step to Cartesian:      0.000 s ( 0.000 %)
Storing new data                :      0.000 s ( 0.000 %)
Checking convergence            :      0.000 s ( 0.000 %)
Final printing                  :      0.001 s (50.000 %)
Total time                      :      0.002 s

Time for energy+gradient        :      2.892 s
Time for complete geometry iter :      3.000 s

         *************************************************************
         *                GEOMETRY OPTIMIZATION CYCLE   2            *
         *************************************************************
---------------------------------
CARTESIAN COORDINATES (ANGSTROEM)
---------------------------------
  Cl     0.000000    0.000000    0.073530
  H      0.000000    0.000000   -1.207400

----------------------------
CARTESIAN COORDINATES (A.U.)
----------------------------
  NO LB      ZA    FRAG     MASS         X           Y           Z
   0 Cl   17.0000    0    35.453    0.000000    0.000000    0.138952
   1 H     1.0000    0     1.008    0.000000    0.000000   -2.281656

--------------------------------
INTERNAL COORDINATES (ANGSTROEM)
--------------------------------
 Cl     0   0   0     0.000000000000     0.00000000     0.00000000
 H      1   0   0     1.280930355405     0.00000000     0.00000000

---------------------------
INTERNAL COORDINATES (A.U.)
---------------------------
 Cl     0   0   0     0.000000000000     0.00000000     0.00000000
 H      1   0   0     2.420607568341     0.00000000     0.00000000

------------------------------------------------------------------------------
                   ___                                                        
                  /   \      - P O W E R E D   B Y -                         
                 /     \                                                     
                 |  |  |   _    _      __       _____    __    __             
                 |  |  |  | |  | |    /  \     |  _  \  |  |  /  |          
                  \  \/   | |  | |   /    \    | | | |  |  | /  /          
                 / \  \   | |__| |  /  /\  \   | |_| |  |  |/  /          
                |  |  |   |  __  | /  /__\  \  |    /   |      \           
                |  |  |   | |  | | |   __   |  |    \   |  |\   \          
                \     /   | |  | | |  |  |  |  | |\  \  |  | \   \       
                 \___/    |_|  |_| |__|  |__|  |_| \__\ |__|  \__/        
                                                                              
                      - O R C A' S   B I G   F R I E N D -                    
                                      &                                       
                       - I N T E G R A L  F E E D E R -                       
                                                                              
 v1 FN, 2020, v2 2021, v3 2022-2024                                           
------------------------------------------------------------------------------


----------------------
SHARK INTEGRAL PACKAGE
----------------------

Number of atoms                             ...      2
Number of basis functions                   ...     56
Number of shells                            ...     20
Maximum angular momentum                    ...      3
Integral batch strategy                     ... SHARK/LIBINT Hybrid
RI-J (if used) integral strategy            ... SPLIT-RIJ (Revised 2003 algorithm where possible)
Printlevel                                  ...      1
Contraction scheme used                     ... SEGMENTED contraction
Prescreening option                         ... SCHWARTZ
   Thresh                                   ... 1.000e-12
   Tcut                                     ... 1.000e-14
   Tpresel                                  ... 1.000e-14 
Coulomb Range Separation                    ... NOT USED
Exchange Range Separation                   ... NOT USED
Multipole approximations                    ... NOT USED
Finite Nucleus Model                        ... NOT USED
CABS basis                                  ... NOT available
Auxiliary Coulomb fitting basis             ... AVAILABLE
   # of basis functions in Aux-J            ...     62
   # of shells in Aux-J                     ...     22
   Maximum angular momentum in Aux-J        ...      4
Auxiliary J/K fitting basis                 ... NOT available
Auxiliary Correlation fitting basis         ... NOT available
Auxiliary 'external' fitting basis          ... NOT available

Checking pre-screening integrals            ... done (  0.0 sec) Dimension = 20
Check shell pair data                       ... done (  0.0 sec)
Shell pair information
Shell pair cut-off parameter TPreSel        ...   1.0e-14
Total number of shell pairs                 ...       210
Shell pairs after pre-screening             ...       210
Total number of primitive shell pairs       ...       668
Primitive shell pairs kept                  ...       654
          la=0 lb=0:     36 shell pairs
          la=1 lb=0:     56 shell pairs
          la=1 lb=1:     28 shell pairs
          la=2 lb=0:     32 shell pairs
          la=2 lb=1:     28 shell pairs
          la=2 lb=2:     10 shell pairs
          la=3 lb=0:      8 shell pairs
          la=3 lb=1:      7 shell pairs
          la=3 lb=2:      4 shell pairs
          la=3 lb=3:      1 shell pairs

Calculating one electron integrals          ... done (  0.0 sec)
Calculating RI/J V-Matrix + Cholesky decomp.... done (  0.0 sec)
Calculating Nuclear repulsion               ... done (  0.0 sec) ENN=      7.023030177357 Eh

Diagonalization of the overlap matrix:
Smallest eigenvalue                        ... 3.996e-03
Time for diagonalization                   ...    0.001 sec
Threshold for overlap eigenvalues          ... 1.000e-07
Number of eigenvalues below threshold      ... 0
Time for construction of square roots      ...    0.001 sec
Total time needed                          ...    0.008 sec

-------------------
DFT GRID GENERATION
-------------------

General Integration Accuracy     IntAcc      ... 4.388
Radial Grid Type                 RadialGrid  ... OptM3 with GC (2021)
Angular Grid (max. ang.)         AngularGrid ... 4 (Lebedev-302)
Angular grid pruning method      GridPruning ... 4 (adaptive)
Weight generation scheme         WeightScheme... mBecke (2022)
Basis function cutoff            BFCut       ... 1.0000e-12
Integration weight cutoff        WCut        ... 1.0000e-14
Partially contracted basis set               ... off
Rotationally invariant grid construction     ... off
Angular grids for H and He will be reduced by one unit

Total number of grid points                  ...    10685
Total number of batches                      ...      168
Average number of points per batch           ...       63
Average number of grid points per atom       ...     5343

--------------------
COSX GRID GENERATION
--------------------

GRIDX 1
-------
General Integration Accuracy     IntAcc      ... 3.816
Radial Grid Type                 RadialGrid  ... OptM3 with GC (2021)
Angular Grid (max. ang.)         AngularGrid ... 1 (Lebedev-50)
Angular grid pruning method      GridPruning ... 4 (adaptive)
Weight generation scheme         WeightScheme... mBecke (2022)
Basis function cutoff            BFCut       ... 1.0000e-12
Integration weight cutoff        WCut        ... 1.0000e-14
Partially contracted basis set               ... on
Rotationally invariant grid construction     ... off
Angular grids for H and He will be reduced by one unit

Total number of grid points                  ...     2412
Total number of batches                      ...       20
Average number of points per batch           ...      120
Average number of grid points per atom       ...     1206
UseSFitting                                  ... on

GRIDX 2
-------
General Integration Accuracy     IntAcc      ... 4.020
Radial Grid Type                 RadialGrid  ... OptM3 with GC (2021)
Angular Grid (max. ang.)         AngularGrid ... 2 (Lebedev-110)
Angular grid pruning method      GridPruning ... 4 (adaptive)
Weight generation scheme         WeightScheme... mBecke (2022)
Basis function cutoff            BFCut       ... 1.0000e-12
Integration weight cutoff        WCut        ... 1.0000e-14
Partially contracted basis set               ... on
Rotationally invariant grid construction     ... off
Angular grids for H and He will be reduced by one unit

Total number of grid points                  ...     2781
Total number of batches                      ...       23
Average number of points per batch           ...      120
Average number of grid points per atom       ...     1391
UseSFitting                                  ... on

GRIDX 3
-------
General Integration Accuracy     IntAcc      ... 4.338
Radial Grid Type                 RadialGrid  ... OptM3 with GC (2021)
Angular Grid (max. ang.)         AngularGrid ... 3 (Lebedev-194)
Angular grid pruning method      GridPruning ... 4 (adaptive)
Weight generation scheme         WeightScheme... mBecke (2022)
Basis function cutoff            BFCut       ... 1.0000e-12
Integration weight cutoff        WCut        ... 1.0000e-14
Partially contracted basis set               ... on
Rotationally invariant grid construction     ... off
Angular grids for H and He will be reduced by one unit

Total number of grid points                  ...     6811
Total number of batches                      ...       54
Average number of points per batch           ...      126
Average number of grid points per atom       ...     3406
UseSFitting                                  ... on
Initializing property integral containers    ... done (  0.0 sec)

SHARK setup successfully completed in   0.2 seconds

Maximum memory used throughout the entire STARTUP-calculation: 15.1 MB
Occupation numbers will be reassigned to an Aufbau configuration
             **** ENERGY FILE WAS UPDATED (HCl_Freq-B3LYP.en.tmp) ****
Finished Guess after   0.1 sec
Maximum memory used throughout the entire GUESS-calculation: 7.3 MB
----------------------------------------D-I-I-S--------------------------------------------
Iteration    Energy (Eh)           Delta-E    RMSDP     MaxDP     DIISErr   Damp  Time(sec)
-------------------------------------------------------------------------------------------
               ***  Starting incremental Fock matrix formation  ***
                              *** Initializing SOSCF ***
---------------------------------------S-O-S-C-F--------------------------------------
Iteration    Energy (Eh)           Delta-E    RMSDP     MaxDP     MaxGrad    Time(sec)
--------------------------------------------------------------------------------------
    1    -460.7674364338727173     0.00e+00  1.34e-05  1.90e-04  4.28e-05     0.2
               *** Restarting incremental Fock matrix formation ***
    2    -460.7674366736650882    -2.40e-07  6.68e-06  1.10e-04  4.05e-05     0.1
    3    -460.7674366823659398    -8.70e-09  1.94e-06  2.29e-05  3.32e-05     0.1
    4    -460.7674366888672921    -6.50e-09  7.20e-07  1.65e-05  2.78e-06     0.1
    5    -460.7674366889506814    -8.34e-11  2.94e-07  6.38e-06  2.25e-06     0.1
                 **** Energy Check signals convergence ****

               *****************************************************
               *                     SUCCESS                       *
               *           SCF CONVERGED AFTER   5 CYCLES          *
               *****************************************************

Recomputing exchange energy using gridx3       ... done (    0.131 sec)
Old exchange energy                            :     -5.575593436 Eh
New exchange energy                            :     -5.575595183 Eh
Exchange energy change after final integration :     -0.000001747 Eh
Total energy after final integration           :   -460.767438436 Eh
             **** ENERGY FILE WAS UPDATED (HCl_Freq-B3LYP.en.tmp) ****

----------------
TOTAL SCF ENERGY
----------------

Total Energy       :       -460.76743843615395 Eh          -12538.11943 eV

Components:
Nuclear Repulsion  :          7.02303017735661 Eh             191.10637 eV
Electronic Energy  :       -467.79046686630727 Eh          -12729.22574 eV
One Electron Energy:       -650.02856328487348 Eh          -17688.17646 eV
Two Electron Energy:        182.23809641856622 Eh            4958.95071 eV

Virial components:
Potential Energy   :       -920.93190576245911 Eh          -25059.83117 eV
Kinetic Energy     :        460.16446732630521 Eh           12521.71175 eV
Virial Ratio       :          2.00131033826526

DFT components:
N(Alpha)           :        9.000000191759 electrons
N(Beta)            :        9.000000191759 electrons
N(Total)           :       18.000000383518 electrons
E(X)               :      -22.126213069992 Eh       
E(C)               :       -0.852766569127 Eh       
E(XC)              :      -22.978979639119 Eh       

---------------
SCF CONVERGENCE
---------------

  Last Energy change         ...    8.3389e-11  Tolerance :   1.0000e-09
  Last MAX-Density change    ...    6.3792e-06  Tolerance :   1.0000e-08
  Last RMS-Density change    ...    2.9352e-07  Tolerance :   1.0000e-09
  Last DIIS Error            ...    6.2447e-04  Tolerance :   1.0000e-08
  Last Orbital Gradient      ...    2.2486e-06  Tolerance :   2.0000e-06
  Last Orbital Rotation      ...    1.7909e-06  Tolerance :   2.0000e-06


Total SCF time: 0 days 0 hours 0 min 0 sec 
Finished LeanSCF after   1.0 sec

Maximum memory used throughout the entire LEANSCF-calculation: 6.4 MB

-------------------------   --------------------
FINAL SINGLE POINT ENERGY      -460.767438436154
-------------------------   --------------------

------------------------------------------------------------------------------
                         ORCA SCF GRADIENT CALCULATION
------------------------------------------------------------------------------

Nuc. rep. gradient        (SHARK) ... done (  0.0 sec)
HCore & Overlap gradient  (SHARK) ... done (  0.0 sec)
Split-RIJ-J gradient      (SHARK) ... done (  0.1 sec)
COSX-gradient                     ... done (  0.6 sec)
XC gradient                       ... done (  0.1 sec)

------------------
CARTESIAN GRADIENT
------------------

   1   Cl  :   -0.000000000   -0.000000001    0.000180866
   2   H   :    0.000000000    0.000000001   -0.000180866

Difference to translation invariance:
           :   -0.0000000000    0.0000000000   -0.0000000000

Difference to rotation invariance:
           :    0.0000000013   -0.0000000009    0.0000000000

Norm of the Cartesian gradient     ...    0.0002557835
RMS gradient                       ...    0.0001044232
MAX gradient                       ...    0.0001808662

-------
TIMINGS
-------

Total SCF gradient time     ....        0.774 sec

One electron gradient       ....       0.004 sec  (  0.5%)
RI-J Coulomb gradient       ....       0.050 sec  (  6.5%)
COSX gradient               ....       0.583 sec  ( 75.3%)
XC gradient                 ....       0.137 sec  ( 17.7%)

Maximum memory used throughout the entire SCFGRAD-calculation: 8.1 MB
------------------------------------------------------------------------------
                         ORCA GEOMETRY RELAXATION STEP
------------------------------------------------------------------------------

Reading the OPT-File                    .... done
Getting information on internals        .... done
Copying old internal coords+grads       .... done
Making the new internal coordinates     .... (2022 redundants) done
Validating the new internal coordinates .... (2022 redundants) done
Calculating the B-matrix                .... done
Calculating the G,G- and P matrices     .... done
Transforming gradient to internals      .... done
Projecting the internal gradient        .... done
Number of atoms                         ....   2
Number of internal coordinates          ....   1
Current Energy                          ....  -460.767438436 Eh
Current gradient norm                   ....     0.000255783 Eh/bohr
Maximum allowed component of the step   ....  0.300
Current trust radius                    ....  0.300
Updating the Hessian (BFGS)             .... done
Forming the augmented Hessian           .... done
Diagonalizing the augmented Hessian     .... done
Last element of RFO vector              ....  0.999999841
Lowest eigenvalues of augmented Hessian:
 -0.000000102
Length of the computed step             ....  0.000563586
The final length of the internal step   ....  0.000563586
Converting the step to Cartesian space:
 Initial RMS(Int)=    0.0005635856
Transforming coordinates:
 Iter   0:  RMS(Cart)=    0.0001626931 RMS(Int)=    0.0005635856
done
Storing new coordinates                 .... done
The predicted energy change is          ....    -0.000000051
Previously predicted energy change      ....    -0.000001073
Actually observed energy change         ....    -0.000001282
Ratio of predicted to observed change   ....     1.193955396
New trust radius                        ....     0.450000000

                                .--------------------.
          ----------------------|Geometry convergence|-------------------------
          Item                value                   Tolerance       Converged
          ---------------------------------------------------------------------
          Energy change      -0.0000012816            0.0000010000      NO
          RMS gradient        0.0001808662            0.0000100000      NO
          MAX gradient        0.0001808662            0.0001000000      NO
          RMS step            0.0005635856            0.0000100000      NO
          MAX step            0.0005635856            0.0001000000      NO
          ........................................................
          Max(Bonds)      0.0003      Max(Angles)    0.00
          Max(Dihed)        0.00      Max(Improp)    0.00
          ---------------------------------------------------------------------

The optimization has not yet converged - more geometry cycles are needed


    ---------------------------------------------------------------------------
                         Redundant Internal Coordinates
                            (Angstroem and degrees)

        Definition                    Value    dE/dq     Step     New-Value
    ----------------------------------------------------------------------------
     1. B(H   1,Cl  0)                1.2809  0.000181 -0.0003    1.2806   
    ----------------------------------------------------------------------------

Geometry step timings:
Preparation and reading OPT file:      0.006 s (75.000 %)
Internal coordinates            :      0.000 s ( 0.000 %)
B/P matrices and projection     :      0.000 s ( 0.000 %)
Hessian update/contruction      :      0.001 s (12.500 %)
Making the step                 :      0.000 s ( 0.000 %)
Converting the step to Cartesian:      0.000 s ( 0.000 %)
Storing new data                :      0.000 s ( 0.000 %)
Checking convergence            :      0.000 s ( 0.000 %)
Final printing                  :      0.001 s (12.500 %)
Total time                      :      0.008 s

Time for energy+gradient        :      2.116 s
Time for complete geometry iter :      2.163 s

         *************************************************************
         *                GEOMETRY OPTIMIZATION CYCLE   3            *
         *************************************************************
---------------------------------
CARTESIAN COORDINATES (ANGSTROEM)
---------------------------------
  Cl     0.000000    0.000000    0.073381
  H      0.000000    0.000000   -1.207251

----------------------------
CARTESIAN COORDINATES (A.U.)
----------------------------
  NO LB      ZA    FRAG     MASS         X           Y           Z
   0 Cl   17.0000    0    35.453    0.000000    0.000000    0.138670
   1 H     1.0000    0     1.008    0.000000    0.000000   -2.281374

--------------------------------
INTERNAL COORDINATES (ANGSTROEM)
--------------------------------
 Cl     0   0   0     0.000000000000     0.00000000     0.00000000
 H      1   0   0     1.280632118770     0.00000000     0.00000000

---------------------------
INTERNAL COORDINATES (A.U.)
---------------------------
 Cl     0   0   0     0.000000000000     0.00000000     0.00000000
 H      1   0   0     2.420043982779     0.00000000     0.00000000

------------------------------------------------------------------------------
                   ___                                                        
                  /   \      - P O W E R E D   B Y -                         
                 /     \                                                     
                 |  |  |   _    _      __       _____    __    __             
                 |  |  |  | |  | |    /  \     |  _  \  |  |  /  |          
                  \  \/   | |  | |   /    \    | | | |  |  | /  /          
                 / \  \   | |__| |  /  /\  \   | |_| |  |  |/  /          
                |  |  |   |  __  | /  /__\  \  |    /   |      \           
                |  |  |   | |  | | |   __   |  |    \   |  |\   \          
                \     /   | |  | | |  |  |  |  | |\  \  |  | \   \       
                 \___/    |_|  |_| |__|  |__|  |_| \__\ |__|  \__/        
                                                                              
                      - O R C A' S   B I G   F R I E N D -                    
                                      &                                       
                       - I N T E G R A L  F E E D E R -                       
                                                                              
 v1 FN, 2020, v2 2021, v3 2022-2024                                           
------------------------------------------------------------------------------


----------------------
SHARK INTEGRAL PACKAGE
----------------------

Number of atoms                             ...      2
Number of basis functions                   ...     56
Number of shells                            ...     20
Maximum angular momentum                    ...      3
Integral batch strategy                     ... SHARK/LIBINT Hybrid
RI-J (if used) integral strategy            ... SPLIT-RIJ (Revised 2003 algorithm where possible)
Printlevel                                  ...      1
Contraction scheme used                     ... SEGMENTED contraction
Prescreening option                         ... SCHWARTZ
   Thresh                                   ... 1.000e-12
   Tcut                                     ... 1.000e-14
   Tpresel                                  ... 1.000e-14 
Coulomb Range Separation                    ... NOT USED
Exchange Range Separation                   ... NOT USED
Multipole approximations                    ... NOT USED
Finite Nucleus Model                        ... NOT USED
CABS basis                                  ... NOT available
Auxiliary Coulomb fitting basis             ... AVAILABLE
   # of basis functions in Aux-J            ...     62
   # of shells in Aux-J                     ...     22
   Maximum angular momentum in Aux-J        ...      4
Auxiliary J/K fitting basis                 ... NOT available
Auxiliary Correlation fitting basis         ... NOT available
Auxiliary 'external' fitting basis          ... NOT available

Checking pre-screening integrals            ... done (  0.0 sec) Dimension = 20
Check shell pair data                       ... done (  0.0 sec)
Shell pair information
Shell pair cut-off parameter TPreSel        ...   1.0e-14
Total number of shell pairs                 ...       210
Shell pairs after pre-screening             ...       210
Total number of primitive shell pairs       ...       668
Primitive shell pairs kept                  ...       654
          la=0 lb=0:     36 shell pairs
          la=1 lb=0:     56 shell pairs
          la=1 lb=1:     28 shell pairs
          la=2 lb=0:     32 shell pairs
          la=2 lb=1:     28 shell pairs
          la=2 lb=2:     10 shell pairs
          la=3 lb=0:      8 shell pairs
          la=3 lb=1:      7 shell pairs
          la=3 lb=2:      4 shell pairs
          la=3 lb=3:      1 shell pairs

Calculating one electron integrals          ... done (  0.0 sec)
Calculating RI/J V-Matrix + Cholesky decomp.... done (  0.0 sec)
Calculating Nuclear repulsion               ... done (  0.0 sec) ENN=      7.024665717224 Eh

Diagonalization of the overlap matrix:
Smallest eigenvalue                        ... 3.991e-03
Time for diagonalization                   ...    0.001 sec
Threshold for overlap eigenvalues          ... 1.000e-07
Number of eigenvalues below threshold      ... 0
Time for construction of square roots      ...    0.001 sec
Total time needed                          ...    0.007 sec

-------------------
DFT GRID GENERATION
-------------------

General Integration Accuracy     IntAcc      ... 4.388
Radial Grid Type                 RadialGrid  ... OptM3 with GC (2021)
Angular Grid (max. ang.)         AngularGrid ... 4 (Lebedev-302)
Angular grid pruning method      GridPruning ... 4 (adaptive)
Weight generation scheme         WeightScheme... mBecke (2022)
Basis function cutoff            BFCut       ... 1.0000e-12
Integration weight cutoff        WCut        ... 1.0000e-14
Partially contracted basis set               ... off
Rotationally invariant grid construction     ... off
Angular grids for H and He will be reduced by one unit

Total number of grid points                  ...    10685
Total number of batches                      ...      168
Average number of points per batch           ...       63
Average number of grid points per atom       ...     5343

--------------------
COSX GRID GENERATION
--------------------

GRIDX 1
-------
General Integration Accuracy     IntAcc      ... 3.816
Radial Grid Type                 RadialGrid  ... OptM3 with GC (2021)
Angular Grid (max. ang.)         AngularGrid ... 1 (Lebedev-50)
Angular grid pruning method      GridPruning ... 4 (adaptive)
Weight generation scheme         WeightScheme... mBecke (2022)
Basis function cutoff            BFCut       ... 1.0000e-12
Integration weight cutoff        WCut        ... 1.0000e-14
Partially contracted basis set               ... on
Rotationally invariant grid construction     ... off
Angular grids for H and He will be reduced by one unit

Total number of grid points                  ...     2412
Total number of batches                      ...       20
Average number of points per batch           ...      120
Average number of grid points per atom       ...     1206
UseSFitting                                  ... on

GRIDX 2
-------
General Integration Accuracy     IntAcc      ... 4.020
Radial Grid Type                 RadialGrid  ... OptM3 with GC (2021)
Angular Grid (max. ang.)         AngularGrid ... 2 (Lebedev-110)
Angular grid pruning method      GridPruning ... 4 (adaptive)
Weight generation scheme         WeightScheme... mBecke (2022)
Basis function cutoff            BFCut       ... 1.0000e-12
Integration weight cutoff        WCut        ... 1.0000e-14
Partially contracted basis set               ... on
Rotationally invariant grid construction     ... off
Angular grids for H and He will be reduced by one unit

Total number of grid points                  ...     2781
Total number of batches                      ...       23
Average number of points per batch           ...      120
Average number of grid points per atom       ...     1391
UseSFitting                                  ... on

GRIDX 3
-------
General Integration Accuracy     IntAcc      ... 4.338
Radial Grid Type                 RadialGrid  ... OptM3 with GC (2021)
Angular Grid (max. ang.)         AngularGrid ... 3 (Lebedev-194)
Angular grid pruning method      GridPruning ... 4 (adaptive)
Weight generation scheme         WeightScheme... mBecke (2022)
Basis function cutoff            BFCut       ... 1.0000e-12
Integration weight cutoff        WCut        ... 1.0000e-14
Partially contracted basis set               ... on
Rotationally invariant grid construction     ... off
Angular grids for H and He will be reduced by one unit

Total number of grid points                  ...     6811
Total number of batches                      ...       54
Average number of points per batch           ...      126
Average number of grid points per atom       ...     3406
UseSFitting                                  ... on
Initializing property integral containers    ... done (  0.0 sec)

SHARK setup successfully completed in   0.1 seconds

Maximum memory used throughout the entire STARTUP-calculation: 15.1 MB
Occupation numbers will be reassigned to an Aufbau configuration
             **** ENERGY FILE WAS UPDATED (HCl_Freq-B3LYP.en.tmp) ****
Finished Guess after   0.1 sec
Maximum memory used throughout the entire GUESS-calculation: 7.3 MB
----------------------------------------D-I-I-S--------------------------------------------
Iteration    Energy (Eh)           Delta-E    RMSDP     MaxDP     DIISErr   Damp  Time(sec)
-------------------------------------------------------------------------------------------
               ***  Starting incremental Fock matrix formation  ***
                              *** Initializing SOSCF ***
---------------------------------------S-O-S-C-F--------------------------------------
Iteration    Energy (Eh)           Delta-E    RMSDP     MaxDP     MaxGrad    Time(sec)
--------------------------------------------------------------------------------------
    1    -460.7674367271324058     0.00e+00  3.28e-06  4.65e-05  1.04e-05     0.2
               *** Restarting incremental Fock matrix formation ***
    2    -460.7674367410434684    -1.39e-08  1.63e-06  2.67e-05  9.91e-06     0.1
    3    -460.7674367415763186    -5.33e-10  4.73e-07  5.59e-06  7.80e-06     0.1
                 **** Energy Check signals convergence ****

               *****************************************************
               *                     SUCCESS                       *
               *           SCF CONVERGED AFTER   3 CYCLES          *
               *****************************************************

Recomputing exchange energy using gridx3       ... done (    0.121 sec)
Old exchange energy                            :     -5.575613313 Eh
New exchange energy                            :     -5.575615058 Eh
Exchange energy change after final integration :     -0.000001744 Eh
Total energy after final integration           :   -460.767438486 Eh
             **** ENERGY FILE WAS UPDATED (HCl_Freq-B3LYP.en.tmp) ****

----------------
TOTAL SCF ENERGY
----------------

Total Energy       :       -460.76743848598949 Eh          -12538.11943 eV

Components:
Nuclear Repulsion  :          7.02466571722408 Eh             191.15087 eV
Electronic Energy  :       -467.79210245880040 Eh          -12729.27025 eV
One Electron Energy:       -650.03151985632394 Eh          -17688.25691 eV
Two Electron Energy:        182.23941739752351 Eh            4958.98666 eV

Virial components:
Potential Energy   :       -920.93232750240077 Eh          -25059.84265 eV
Kinetic Energy     :        460.16488901641122 Eh           12521.72322 eV
Virial Ratio       :          2.00130942078364

DFT components:
N(Alpha)           :        9.000000191770 electrons
N(Beta)            :        9.000000191770 electrons
N(Total)           :       18.000000383539 electrons
E(X)               :      -22.126281167912 Eh       
E(C)               :       -0.852770666609 Eh       
E(XC)              :      -22.979051834521 Eh       

---------------
SCF CONVERGENCE
---------------

  Last Energy change         ...    5.3285e-10  Tolerance :   1.0000e-09
[...]
                     *******************************

----------------------
LOEWDIN ATOMIC CHARGES
----------------------
   0 Cl:    0.214287
   1 H :   -0.214287

-------------------------------
LOEWDIN REDUCED ORBITAL CHARGES
-------------------------------
  0 Cls       :     5.596301  s :     5.596301
      pz      :     3.319842  p :    11.144327
      px      :     3.912243
      py      :     3.912243
      dz2     :     0.040248  d :     0.040611
      dxz     :     0.000182
      dyz     :     0.000182
      dx2y2   :     0.000000
      dxy     :     0.000000
      f0      :     0.004210  f :     0.004474
      f+1     :     0.000132
      f-1     :     0.000132
      f+2     :     0.000000
      f-2     :     0.000000
      f+3     :     0.000000
      f-3     :     0.000000

  1 H s       :     0.871873  s :     0.871873
      pz      :     0.149946  p :     0.298253
      px      :     0.074153
      py      :     0.074153
      dz2     :     0.017581  d :     0.044161
      dxz     :     0.013290
      dyz     :     0.013290
      dx2y2   :     0.000000
      dxy     :     0.000000



                      *****************************
                      * MAYER POPULATION ANALYSIS *
                      *****************************

  NA   - Mulliken gross atomic population
  ZA   - Total nuclear charge
  QA   - Mulliken gross atomic charge
  VA   - Mayer's total valence
  BVA  - Mayer's bonded valence
  FA   - Mayer's free valence

  ATOM       NA         ZA         QA         VA         BVA        FA
  0 Cl    17.1788    17.0000    -0.1788     1.0297     1.0297    -0.0000
  1 H      0.8212     1.0000     0.1788     1.0297     1.0297    -0.0000

  Mayer bond orders larger than 0.100000
B(  0-Cl,  1-H ) :   1.0297 

-------
TIMINGS
-------

Total SCF time: 0 days 0 hours 0 min 0 sec 

Total time                  ....       0.596 sec
Sum of individual times     ....       0.559 sec  ( 93.8%)

SCF preparation             ....       0.059 sec  (  9.9%)
Fock matrix formation       ....       0.351 sec  ( 58.9%)
  Startup                   ....       0.016 sec  (  4.6% of F)
  Split-RI-J                ....       0.015 sec  (  4.3% of F)
  Chain of spheres X        ....       0.257 sec  ( 73.2% of F)
  XC integration            ....       0.056 sec  ( 16.0% of F)
    Basis function eval.    ....       0.019 sec  ( 33.9% of XC)
    Density eval.           ....       0.003 sec  (  5.4% of XC)
    XC-Functional eval.     ....       0.010 sec  ( 17.9% of XC)
    XC-Potential eval.      ....       0.016 sec  ( 28.6% of XC)
Diagonalization             ....       0.000 sec  (  0.0%)
Density matrix formation    ....       0.027 sec  (  4.5%)
Total Energy calculation    ....       0.022 sec  (  3.7%)
Population analysis         ....       0.032 sec  (  5.4%)
Orbital Transformation      ....       0.009 sec  (  1.5%)
Orbital Orthonormalization  ....       0.000 sec  (  0.0%)
DIIS solution               ....       0.025 sec  (  4.2%)
SOSCF solution              ....       0.034 sec  (  5.7%)
Finished LeanSCF after   0.6 sec

Maximum memory used throughout the entire LEANSCF-calculation: 6.5 MB

-------------------------   --------------------
FINAL SINGLE POINT ENERGY      -460.767438486721
-------------------------   --------------------

                                *** OPTIMIZATION RUN DONE ***


------------------------------------------------------------------------------
                              ORCA PROPERTY CALCULATIONS
------------------------------------------------------------------------------

GBWName                                 ... HCl_Freq-B3LYP.gbw
Number of atoms                         ...      2
Number of basis functions               ...     56
Max core memory                         ...   4000 MB

Electric properties:
Dipole moment                           ... YES
Quadrupole moment                       ...  NO
Static polarizability (Dipole/Dipole)   ...  NO
Static polarizability (Dipole/Quad.)    ...  NO
Static polarizability (Quad./Quad.)     ...  NO
Static polarizability (Velocity)        ...  NO

Atomic electric properties:
Dipole moment                           ...  NO
Quadrupole moment                       ...  NO
Static polarizability                   ...  NO

Choice of electric origin               ... Center of mass
Position of electric origin             ...     0.000000     0.000000     0.071768

General magnetic properties:
Magnetizability                         ...  NO

EPR properties:
g-Tensor (aka g-matrix)                 ...  NO
Zero-Field splitting spin-orbit         ...  NO
Zero-field splitting spin-spin          ...  NO
Hyperfine couplings                     ...  NO (   0 nuclei)
Quadrupole couplings                    ...  NO (   0 nuclei)
Contact density                         ...  NO (   0 nuclei)

NMR properties:
Chemical shifts                         ...  NO (   0 nuclei)
Spin-rotation constants                 ...  NO (   0 nuclei)
Spin-spin couplings                     ...  NO (   0 nuclei,    0 pairs)

Choice of magnetic origin               ... GIAO
Position of magnetic origin             ...     0.000000     0.000000     0.000000

Properties with geometric perturbations:
SCF Hessian                             ...  NO
IR spectrum                             ... YES
VCD spectrum                            ...  NO
X-ray spectroscopy properties:
SCF XES/XAS/RIXS spectra                ...  NO


-------------
DIPOLE MOMENT
-------------

Method             : SCF
Type of density    : Electron Density
Multiplicity       :   1
Irrep              :   0
Energy             :  -460.7674384867209483 Eh
Relativity type    : 
Basis              : AO
                                X                 Y                 Z
Electronic contribution:     -0.000000001       0.000000008       0.748394790
Nuclear contribution   :      0.000000000       0.000000000      -1.215765904
                        -----------------------------------------
Total Dipole Moment    :     -0.000000001       0.000000008      -0.467371114
                        -----------------------------------------
Magnitude (a.u.)       :      0.467371114
Magnitude (Debye)      :      1.187962964



--------------------
Rotational spectrum 
--------------------
 
Rotational constants in cm-1:             0.000000            10.487243            10.487243 
Rotational constants in MHz :             0.000000        314399.622336        314399.622336 

Dipole components along the rotational axes: 
x,y,z [a.u.] :    -0.467371     0.000000    -0.000000 
x,y,z [Debye]:    -1.187963     0.000000    -0.000000 

 

Dipole moment calculation done in   0.0 sec 

Maximum memory used throughout the entire PROP-calculation: 4.3 MB

----------------------------------------------------------------------------
                           ORCA NUMERICAL FREQUENCIES
----------------------------------------------------------------------------

Number of atoms                ... 2
Central differences            ... used
Number of displacements        ... 12
Numerical increment            ... 5.000e-03 bohr
IR-spectrum generation         ... on
Raman-spectrum generation      ... off
Surface Crossing Hessian       ... off

The output will be reduced. Please look at the following files:
SCF program output             ... >HCl_Freq-B3LYP.lastscf
Integral program output        ... >HCl_Freq-B3LYP.lastint
Gradient program output        ... >HCl_Freq-B3LYP.lastgrad
Dipole moment program output   ... >HCl_Freq-B3LYP.lastmom

	<< Calculating gradient on displaced geometry   1 (of  12) >>
	<< Calculating gradient on displaced geometry   2 (of  12) >>
	<< Calculating gradient on displaced geometry   3 (of  12) >>
	<< Calculating gradient on displaced geometry   4 (of  12) >>
	<< Calculating gradient on displaced geometry   5 (of  12) >>
	<< Calculating gradient on displaced geometry   6 (of  12) >>
	<< Calculating gradient on displaced geometry   7 (of  12) >>
	<< Calculating gradient on displaced geometry   8 (of  12) >>
	<< Calculating gradient on displaced geometry   9 (of  12) >>
	<< Calculating gradient on displaced geometry  10 (of  12) >>
	<< Calculating gradient on displaced geometry  11 (of  12) >>
	<< Calculating gradient on displaced geometry  12 (of  12) >>

-----------------------
VIBRATIONAL FREQUENCIES
-----------------------

Scaling factor for frequencies =  1.000000000  (already applied!)

     0:       0.00 cm**-1
     1:       0.00 cm**-1
     2:       0.00 cm**-1
     3:       0.00 cm**-1
     4:       0.00 cm**-1
     5:    2948.03 cm**-1


------------
NORMAL MODES
------------

These modes are the Cartesian displacements weighted by the diagonal matrix
M(i,i)=1/sqrt(m[i]) where m[i] is the mass of the displaced atom
Thus, these vectors are normalized but *not* orthogonal

                  0          1          2          3          4          5    
      0       0.000000   0.000000   0.000000   0.000000   0.000000   0.000000
      1       0.000000   0.000000   0.000000   0.000000   0.000000   0.000000
      2       0.000000   0.000000   0.000000   0.000000   0.000000  -0.028421
      3       0.000000   0.000000   0.000000   0.000000   0.000000   0.000000
      4       0.000000   0.000000   0.000000   0.000000   0.000000   0.000000
      5       0.000000   0.000000   0.000000   0.000000   0.000000   0.999596


-----------
IR SPECTRUM
-----------

 Mode   freq       eps      Int      T**2         TX        TY        TZ
       cm**-1   L/(mol*cm) km/mol    a.u.
----------------------------------------------------------------------------
  5:   2948.03   0.006971   35.23  0.000738  (-0.000000  0.000000  0.027164)

* The epsilon (eps) is given for a Dirac delta lineshape.
** The dipole moment derivative (T) already includes vibrational overlap.

The first frequency considered to be a vibration is 5
The total number of vibrations considered is 1


--------------------------
THERMOCHEMISTRY AT 298.15K
--------------------------

Temperature         ...   298.15 K
Pressure            ...     1.00 atm
Total Mass          ...    36.46 AMU
Quasi RRHO          ...     True
Cut-Off Frequency   ...     1.00 cm^-1
The molecule is recognized as being linear

Throughout the following assumptions are being made:
  (1) The electronic state is orbitally nondegenerate
  (2) There are no thermally accessible electronically excited states
  (3) Hindered rotations indicated by low frequency modes are not
      treated as such but are treated as vibrations and this may
      cause some error
  (4) All equations used are the standard statistical mechanics
      equations for an ideal gas
  (5) All vibrations are strictly harmonic

freq.    2948.03  E(vib)   ...       0.00 

------------
INNER ENERGY
------------

The inner energy is: U= E(el) + E(ZPE) + E(vib) + E(rot) + E(trans)
    E(el)   - is the total energy from the electronic structure calculation
              = E(kin-el) + E(nuc-el) + E(el-el) + E(nuc-nuc)
    E(ZPE)  - the the zero temperature vibrational energy from the frequency calculation
    E(vib)  - the the finite temperature correction to E(ZPE) due to population
              of excited vibrational states
    E(rot)  - is the rotational thermal energy
    E(trans)- is the translational thermal energy

Summary of contributions to the inner energy U:
Electronic energy                ...   -460.76743849 Eh
Zero point energy                ...      0.00671611 Eh       4.21 kcal/mol
Thermal vibrational correction   ...      0.00000001 Eh       0.00 kcal/mol
Thermal rotational correction    ...      0.00094418 Eh       0.59 kcal/mol
Thermal translational correction ...      0.00141627 Eh       0.89 kcal/mol
-----------------------------------------------------------------------
Total thermal energy                   -460.75836192 Eh


Summary of corrections to the electronic energy:
(perhaps to be used in another calculation)
Total thermal correction                  0.00236046 Eh       1.48 kcal/mol
Non-thermal (ZPE) correction              0.00671611 Eh       4.21 kcal/mol
-----------------------------------------------------------------------
Total correction                          0.00907657 Eh       5.70 kcal/mol


--------
ENTHALPY
--------

The enthalpy is H = U + kB*T
                kB is Boltzmann's constant
Total thermal energy              ...   -460.75836192 Eh 
Thermal Enthalpy correction       ...      0.00094421 Eh       0.59 kcal/mol
-----------------------------------------------------------------------
Total Enthalpy                    ...   -460.75741771 Eh


Note: Rotational entropy computed according to Herzberg 
Infrared and Raman Spectra, Chapter V,1, Van Nostrand Reinhold, 1945 
Point Group:  C(inf)v, Symmetry Number:   1  
Rotational constants in cm-1:     0.000000    10.487243    10.487243 

Vibrational entropy computed according to the QRRHO of S. Grimme
Chem.Eur.J. 2012 18 9955 using a reference frequency of 100.0 cm-1


-------
ENTROPY
-------

The entropy contributions are T*S = T*(S(el)+S(vib)+S(rot)+S(trans))
     S(el)   - electronic entropy
     S(vib)  - vibrational entropy
     S(rot)  - rotational entropy
     S(trans)- translational entropy
The entropies will be listed as multiplied by the temperature to get
units of energy

Electronic entropy                ...      0.00000000 Eh      0.00 kcal/mol
Vibrational entropy               ...      0.00000001 Eh      0.00 kcal/mol
Rotational entropy                ...      0.00376129 Eh      2.36 kcal/mol
Translational entropy             ...      0.01744233 Eh     10.95 kcal/mol
-----------------------------------------------------------------------
Final entropy term                ...      0.02120362 Eh     13.31 kcal/mol


-------------------
GIBBS FREE ENERGY
-------------------

The Gibbs free energy is G = H - T*S

Total enthalpy                    ...   -460.75741771 Eh 
Total entropy correction          ...     -0.02120362 Eh    -13.31 kcal/mol
-----------------------------------------------------------------------
Final Gibbs free energy         ...   -460.77862133 Eh

For completeness - the Gibbs free energy minus the electronic energy
G-E(el)                           ...     -0.01118285 Eh     -7.02 kcal/mol



--------------------------------
SUGGESTED CITATIONS FOR THIS RUN
--------------------------------

Below you find a list of papers that are relevant to this ORCA run
We neither can nor want to force you to cite these papers, but we appreciate if you do
You receive ORCA, which is the product of decades of hard work by many enthusiastic individuals, for free
The only thing we kindly ask in return is that you cite our papers,
We deeply appreciate it, if you show your appreciation for ORCA by not just citing the generic ORCA reference.

Please note that relegating all ORCA citations to the supporting information does *not* help us.
SI sections are not indexed - citations you put there will not count into any citation statistics
But we need these citations in order to attract the funding resources that allow us to do what we are doing

Therefore, if you are a happy ORCA user, please consider citing a few of the papers listed below in the main body of your paper

In addition to the list printed below, the program has created the file HCl_Freq-B3LYP.bibtex that contains the list in bibtex format
You can import this file easily into all common literature databanks and citation aid programs


List of essential papers. We consider these as the minimum necessary citations

  1. Neese,F.
     Software update: the ORCA program system, version 5.0
     WIRES Comput. Molec. Sci., 2022 12(1)e1606
     doi.org/10.1002/wcms.1606

List of papers to cite with high priority. The work reported in these papers was absolutely
necessary for this run to complete.
Our perspective: the developers of density functionals and basis sets usually get cited in chemistry papers
Good! But without the algorithms to do something with them, the functionals or basis sets would not do anything.
Hence, in our opinion, the algorithm design and method developments papers are equally worthy of getting cited

  1. Neese,F.
     An improvement of the resolution of the identity approximation for the formation of the Coulomb matrix
     J. Comp. Chem., 2003 24(14)1740-1747
     doi.org/10.1002/jcc.10318
  2. Neese,F.; Wennmohs,F.; Hansen,A.; Becker,U.
     Efficient, approximate and parallel Hartree-Fock and hybrid DFT calculations. A 'chain-of-spheres' algorithm for the Hartree-Fock exchange
     Chem. Phys., 2009 356(1-3)98-109
     doi.org/10.1016/j.chemphys.2008.10.036
  3. Bykov,D.; Petrenko,T.; Izsak,R.; Kossmann,S.; Becker,U.; Valeev,E.; Neese,F.
     Efficient implementation of the analytic second derivatives of Hartree-Fock and hybrid DFT energies: a detailed analysis of different approximations
     Molec. Phys., 2015 113 1961-1977
     doi.org/10.1080/00268976.2015.1025114
  4. Helmich-Paris,B.; de Souza,B.; Neese,F.; Izsák,R.
     An improved chain of spheres for exchange algorithm
     J. Chem. Phys., 2021 155 104109
     doi.org/doi: 10.1063/5.0058766.
  5. Neese,F.
     The SHARK Integral Generation and Digestion System
     J. Comp. Chem., 2022  1-16
     doi.org/10.1002/jcc.26942

List of suggested additional citations. These are papers that are important in the 'surrounding' of 
of this run, or papers that preceded the highly important papers. If you like your results we are grateful for a citation.

  1. Izsak,R.; Neese,F.
     An overlap fitted chain of spheres exchange method
     J. Chem. Phys., 2011 135 144105
     doi.org/10.1063/1.3646921
  2. Izsak,R.; Hansen,A.; Neese,F.
     The resolution of identity and chain of spheres approximations for the LPNO-CCSD singles Fock term
     Molec. Phys., 2012 110 2413-2417
     doi.org/10.1080/00268976.2012.687466
  3. Neese,F.
     The ORCA program system
     WIRES Comput. Molec. Sci., 2012 2(1)73-78
     doi.org/10.1002/wcms.81
  4. Izsak,R.; Neese,F.; Klopper,W.
     Robust fitting techniques in the chain of spheres approximation to the Fock exchange: The role of the complementary space
     J. Chem. Phys., 2013 139 
     doi.org/10.1063/1.4819264
  5. Neese,F.
     Software update: the ORCA program system, version 4.0
     WIRES Comput. Molec. Sci., 2018 8(1)1-6
     doi.org/10.1002/wcms.1327
  6. Neese,F.; Wennmohs,F.; Becker,U.; Riplinger,C.
     The ORCA quantum chemistry program package
     J. Chem. Phys., 2020 152 Art. No. L224108
     doi.org/10.1063/5.0004608

List of optional additional citations

  1. Neese,F.
     Approximate second-order SCF convergence for spin unrestricted wavefunctions
     Chem. Phys. Lett., 2000 325(1-3)93-98
     doi.org/10.1016/s0009-2614(00)00662-x

Timings for individual modules:

Sum of individual times          ...       38.709 sec (=   0.645 min)
Startup calculation              ...        0.872 sec (=   0.015 min)   2.3 %
SCF iterations                   ...        5.088 sec (=   0.085 min)  13.1 %
Property calculations            ...        0.117 sec (=   0.002 min)   0.3 %
SCF Gradient evaluation          ...        3.399 sec (=   0.057 min)   8.8 %
Geometry relaxation              ...        0.032 sec (=   0.001 min)   0.1 %
Numerical frequency calculation  ...       29.201 sec (=   0.487 min)  75.4 %
                             ****ORCA TERMINATED NORMALLY****
TOTAL RUN TIME: 0 days 0 hours 0 minutes 37 seconds 357 msec
