
                                 *****************
                                 * O   R   C   A *
                                 *****************

                                            #,                                       
                                            ###                                      
                                            ####                                     
                                            #####                                    
                                            ######                                   
                                           ########,                                 
                                     ,,################,,,,,                         
                               ,,#################################,,                 
                          ,,##########################################,,             
                       ,#########################################, ''#####,          
                    ,#############################################,,   '####,        
                  ,##################################################,,,,####,       
                ,###########''''           ''''###############################       
              ,#####''   ,,,,##########,,,,          '''####'''          '####       
            ,##' ,,,,###########################,,,                        '##       
           ' ,,###''''                  '''############,,,                           
         ,,##''                                '''############,,,,        ,,,,,,###''
      ,#''                                            '''#######################'''  
     '                                                          ''''####''''         
             ,#######,   #######,   ,#######,      ##                                
            ,#'     '#,  ##    ##  ,#'     '#,    #''#        ,####,   ,####,        
            ##       ##  ##   ,#'  ##            #'  '#       #'       #'  '#        
            ##       ##  #######   ##           ,######,      #####,   #    #        
            '#,     ,#'  ##    ##  '#,     ,#' ,#      #,     #,   #   #,  ,#        
             '#######'   ##     ##  '#######'  #'      '#     '####' # '####'        



                #########################################################
                #                        -***-                          #
                #          Department of theory and spectroscopy        #
                #                                                       #
                #                      Frank Neese                      #
                #                                                       #
                #     Directorship, Architecture, Infrastructure        #
                #                    SHARK, DRIVERS                     #
                #        Core code/Algorithms in most modules           #
                #                                                       #
                #        Max Planck Institute fuer Kohlenforschung      #
                #                Kaiser Wilhelm Platz 1                 #
                #                 D-45470 Muelheim/Ruhr                 #
                #                      Germany                          #
                #                                                       #
                #                  All rights reserved                  #
                #                        -***-                          #
                #########################################################


                         Program Version 6.0.1  -  RELEASE   -


 With contributions from (in alphabetic order):
[Max-Planck-Institut fuer Kohlenforschung]                               
  Daniel Aravena         : Magnetic Suceptibility                        
  Michael Atanasov       : Ab Initio Ligand Field Theory (pilot matlab implementation)
  Alexander A. Auer      : GIAO ZORA, VPT2 properties, NMR spectrum      
  Ute Becker             : All parallelization in ORCA, NUMFREQ, NUMCALC 
  Giovanni Bistoni       : ED, misc. LED, open-shell LED, HFLD           
  Martin Brehm           : Molecular dynamics                            
  Dmytro Bykov           : pre 5.0 version of the SCF Hessian            
  Marcos Casanova-Páez   : Triplet and SCS-CIS(D). UHF-(DLPNO)-IP/EA/STEOM-CCSD. UHF-CVS-IP/STEOM-CCSD   
  Vijay G. Chilkuri      : MRCI spin determinant printing, contributions to CSF-ICE 
  Pauline Colinet        : FMM embedding                                 
  Dipayan Datta          : RHF DLPNO-CCSD density                        
  Achintya Kumar Dutta   : EOM-CC, STEOM-CC                              
  Nicolas Foglia         : Exact transition moments, OPA infrastructure, MCD improvements    
  Dmitry Ganyushin       : Spin-Orbit,Spin-Spin,Magnetic field MRCI      
  Miquel Garcia-Rates    : C-PCM and meta-GGA Hessian, CCSD/C-PCM, Gaussian charge scheme 
  Tiago L. C. Gouveia    : GS-ROHF, GS-ROCIS                             
  Yang Guo               : DLPNO-NEVPT2, F12-NEVPT2, CIM, IAO-localization        
  Andreas Hansen         : Spin unrestricted coupled pair/coupled cluster methods 
  Ingolf Harden          : AUTO-CI MPn and infrastructure                
  Benjamin Helmich-Paris : MC-RPA, TRAH-(SCF,CASSCF), AVAS, COSX integrals, SCF dyn. polar. 
  Lee Huntington         : MR-EOM, pCC                                   
  Robert Izsak           : Overlap fitted RIJCOSX, COSX-SCS-MP3, EOM     
  Riya Kayal             : Wick's Theorem for AUTO-CI, AUTO-CI UHF-CCSDT 
  Emily Kempfer          : AUTO-CI, RHF CISDT and CCSDT                  
  Christian Kollmar      : KDIIS, OOCD, Brueckner-CCSD(T), CCSD density, CASPT2, CASPT2-K, improved NEVPT2 
  Axel Koslowski         : Symmetry handling                             
  Simone Kossmann        : meta-GGA functionals, TD-DFT gradient, OOMP2, (MP2 Hessian; deprecated post 5.0) 
  Lucas Lang             : DCDCAS                                        
  Marvin Lechner         : AUTO-CI (C++ implementation), FIC-MRCC        
  Spencer Leger          : CASSCF response                               
  Dagmar Lenk            : GEPOL surface, SMD, ORCA-2-JSON               
  Dimitrios Liakos       : Extrapolation schemes; Compound Job, initial MDCI parallelization 
  Dimitrios Manganas     : Further ROCIS development; embedding schemes. LFT, Crystal Embedding 
  Dimitrios Pantazis     : SARC Basis sets                               
  Anastasios Papadopoulos: AUTO-CI, single reference methods and gradients 
  Taras Petrenko         : pre 6.0 DFT Hessian and TD-DFT gradient, (ASA, deprecated), ECA, 1-Electron XAS/XES, NRVS 
  Peter Pinski           : DLPNO-MP2, DLPNO-MP2 Gradient                 
  Christoph Reimann      : Effective Core Potentials                     
  Marius Retegan         : Local ZFS, SOC                                
  Christoph Riplinger    : Optimizer, TS searches, QM/MM, DLPNO-CCSD(T), (RO)-DLPNO pert. Triples 
  Michael Roemelt        : Original ROCIS implementation                 
  Masaaki Saitow         : Open-shell DLPNO-CCSD energy and density      
  Barbara Sandhoefer     : DKH picture change effects                    
  Kantharuban Sivalingam : CASSCF convergence/infrastructure, NEVPT2 and variants, FIC-MRCI 
  Bernardo de Souza      : ESD, SOC TD-DFT                               
  Georgi L. Stoychev     : AutoAux, RI-MP2 NMR, DLPNO-MP2 response, X2C  
  Van Anh Tran           : RI-MP2 g-tensors                              
  Willem Van den Heuvel  : Paramagnetic NMR                              
  Zikuan Wang            : NOTCH, Electric field optimization            
  Frank Wennmohs         : Technical directorship and infrastructure     
  Hang Xu                : AUTO-CI-Response properties                   
                                                                         
[FACCTs GmbH]                                                            
  Markus Bursch, Miquel Garcia-Rates, Christoph Riplinger, Bernardo de Souza, Georgi L. Stoychev 
                                                                 
  APM, Basis sets (HGBS, AHGBS, def-TZVP (Ac-Lr), def2-XVPD (La-Lu)), CI-OPT, improved COSX, DLPNO-Multilevel,           
  DOCKER, DRACO, updates on ESD, GOAT, IRC, LR-CPCM, MBIS, meta-GGA TD-DFT gradient, ML-optimized integration grids, 
  MM, NACMEs, nearIR, NEB, NEB-TS, NL-DFT gradient (VV10), 2- and 3-layer-ONIOM, interface openCOSMO-RS, QMMM,   
  Crystal-QMMM, SF, symmetry and pop. for TD-DFT, r2SCAN hybrids, SOLVATOR                                   
                                                                         
[Other institutions]                                                     
  V. Asgeirsson          : NEB                                           
  Christoph Bannwarth    : sTDA-DFT, sTD-DFT, PBEh-3c, B97-3c, D3        
  Sebastian Ehlert       : rSCAN, r2SCAN, r2SCAN-3c, D4, dhf basis sets  
  Marvin Friede          : D4 for Fr, Ra, Ac-Lr                          
  Lars Goerigk           : TD-DFT with DH, B97 family of functionals     
  Stefan Grimme          : VdW corrections, initial TS optimization, DFT functionals, gCP, sTDA/sTD-DF 
  Waldemar Hujo          : DFT-NL                                        
  H. Jonsson             : NEB                                           
  Holger Kruse           : gCP                                           
  Marcel Mueller         : wB97X-3c, vDZP basis set                      
  Hagen Neugebauer       : wr2SCAN                                       
  Tobias Risthaus        : range-separated hybrid DFT                    
  Lukas Wittmann         : regularized MP2, r2SCAN double-hybrids, wr2SCAN        
                                                                         
We gratefully acknowledge several colleagues who have allowed us to      
interface, adapt or use parts of their codes:                            
  Ed Valeev, F. Pavosevic, A. Kumar             : LibInt (2-el integral package), F12 methods 
  Garnet Chan, S. Sharma, J. Yang, R. Olivares  : DMRG                   
  Ulf Ekstrom                                   : XCFun DFT Library      
  Mihaly Kallay                                 : mrcc  (arbitrary order and MRCC methods)
  Frank Weinhold                                : gennbo (NPA and NBO analysis)           
  Simon Mueller                                 : openCOSMO-RS                            
  Christopher J. Cramer and Donald G. Truhlar   : smd solvation model                     
  S Lehtola, MJT Oliveira, MAL Marques          : LibXC Library                           
  Liviu Ungur et al                             : ANISO software                          


 Your calculation uses the libint2 library for the computation of 2-el integrals
 For citations please refer to: http://libint.valeyev.net

 Your ORCA version has been built with support for libXC version: 6.2.2
 For citations please refer to: https://libxc.gitlab.io

 This ORCA versions uses:
   CBLAS   interface :  Fast vector & matrix operations
   LAPACKE interface :  Fast linear algebra routines
   Shared memory     :  Shared parallel matrices


NOTE: MaxCore=4000 MB was set to SCF,MP2,MDCI,CIPSI,MRCI and CIS
      => If you want to overwrite this, your respective input block should be placed after the MaxCore statement
Warning: RI is on but no J-basis has been assigned. Assigning Def2/J (nothing to worry about!)
================================================================================

----- Orbital basis set information -----
Your calculation utilizes the basis: def2-TZVPP
   F. Weigend and R. Ahlrichs, Phys. Chem. Chem. Phys. 7, 3297 (2005).

----- AuxJ basis set information -----
Your calculation utilizes the auxiliary basis: def2/J
   F. Weigend, Phys. Chem. Chem. Phys. 8, 1057 (2006).

================================================================================
                                        WARNINGS
                       Please study these warnings very carefully!
================================================================================


WARNING: Analytical and numerical frequencies both set to true
  ===> : Disabling Anfreq
INFO   : Checking CIS options ...

WARNING: Geometry Optimization
  ===> : Switching off AutoStart
         For restart on a previous wavefunction, please use MOREAD

WARNING: CIS/ROCIS methods need fully converged wavefunctions
  ===> : Setting SCFConvForced true
         You can overwrite this default with %scf ConvForced false 


================================================================================
                                       INPUT FILE
================================================================================
NAME = NH3_TDDFT-PBE0.inp
|  1> ! PBE0 def2-TZVPP Opt TightOpt VeryTightSCF
|  2> 
|  3> ! Freq
|  4> ! NumFreq
|  5> 
|  6> %scf
|  7>    MaxIter 400          # Máximo de iteraciones permitidas para el SCF
|  8> end
|  9> 
| 10> %geom
| 11>    TolRMSD 1.0e-5
| 12>    TolMAXD 1.0e-4
| 13>    TolRMSG 1.0e-5
| 14>    TolMAXG 1.0e-4
| 15> end
| 16> 
| 17> %tddft
| 18>   nroots 10
| 19> end
| 20> 
| 21> %pal
| 22>    nprocs 1
| 23> end
| 24> 
| 25> 
| 26> %MaxCore 4000            # Memoria máxima por núcleo (en MB)
| 27> 
| 28> * xyz 0 1
| 29> N       0.00000000    0.00000000    0.11361500
| 30> H       0.00000000    0.93799100   -0.26510100
| 31> H      -0.81232400   -0.46899600   -0.26510100
| 32> H       0.81232400   -0.46899600   -0.26510100
| 33> **                         ****END OF INPUT****
================================================================================

                       *****************************
                       * Geometry Optimization Run *
                       *****************************

Geometry optimization settings:
Update method            Update   .... BFGS
Choice of coordinates    CoordSys .... (2022) Redundant Internals
Initial Hessian          InHess   .... Almloef's Model
Max. no of cycles        MaxIter  .... 50

Convergence Tolerances:
Energy Change            TolE     ....  1.0000e-06 Eh
Max. Gradient            TolMAXG  ....  1.0000e-04 Eh/bohr
RMS Gradient             TolRMSG  ....  1.0000e-05 Eh/bohr
Max. Displacement        TolMAXD  ....  1.0000e-04 bohr
RMS Displacement         TolRMSD  ....  1.0000e-05 bohr
Strict Convergence                .... False

------------------------------------------------------------------------------
                        ORCA OPTIMIZATION COORDINATE SETUP
------------------------------------------------------------------------------

The optimization will be done in redundant internal coordinates (2022)
Making redundant internal coordinates   ...  (2022 redundants) done
Evaluating the initial hessian          ...  (Almloef) done
Evaluating the coordinates              ...  done
Calculating the B-matrix                .... done
Calculating the G-matrix                .... done
Diagonalizing the G-matrix              .... done
The first mode is                       ....    1
The number of degrees of freedom        ....    6

    -----------------------------------------------------------------
                    Redundant Internal Coordinates


    -----------------------------------------------------------------
         Definition                    Initial Value    Approx d2E/dq
    -----------------------------------------------------------------
      1. B(H   1,N   0)                  1.0116         0.430236   
      2. B(H   2,N   0)                  1.0116         0.430236   
      3. B(H   3,N   0)                  1.0116         0.430236   
      4. A(H   1,N   0,H   3)          106.8430         0.302702   
      5. A(H   2,N   0,H   3)          106.8430         0.302702   
      6. A(H   1,N   0,H   2)          106.8430         0.302702   
      7. I(H   1,H   3,H   2,N   0)     60.9075         0.003864   
    -----------------------------------------------------------------

Number of atoms                         .... 4
Number of degrees of freedom            .... 7


         *************************************************************
         *                GEOMETRY OPTIMIZATION CYCLE   1            *
         *************************************************************
---------------------------------
CARTESIAN COORDINATES (ANGSTROEM)
---------------------------------
  N      0.000000    0.000000    0.113615
  H      0.000000    0.937991   -0.265101
  H     -0.812324   -0.468996   -0.265101
  H      0.812324   -0.468996   -0.265101

----------------------------
CARTESIAN COORDINATES (A.U.)
----------------------------
  NO LB      ZA    FRAG     MASS         X           Y           Z
   0 N     7.0000    0    14.007    0.000000    0.000000    0.214701
   1 H     1.0000    0     1.008    0.000000    1.772546   -0.500968
   2 H     1.0000    0     1.008   -1.535070   -0.886274   -0.500968
   3 H     1.0000    0     1.008    1.535070   -0.886274   -0.500968

--------------------------------
INTERNAL COORDINATES (ANGSTROEM)
--------------------------------
 N      0   0   0     0.000000000000     0.00000000     0.00000000
 H      1   0   0     1.011559649619     0.00000000     0.00000000
 H      1   2   0     1.011559853715   106.84302597     0.00000000
 H      1   2   3     1.011559853715   106.84302597   114.07643751

---------------------------
INTERNAL COORDINATES (A.U.)
---------------------------
 N      0   0   0     0.000000000000     0.00000000     0.00000000
 H      1   0   0     1.911570705905     0.00000000     0.00000000
 H      1   2   0     1.911571091591   106.84302597     0.00000000
 H      1   2   3     1.911571091591   106.84302597   114.07643751

---------------------
BASIS SET INFORMATION
---------------------
There are 2 groups of distinct atoms

 Group   1 Type N   : 11s6p2d1f contracted to 5s3p2d1f pattern {62111/411/11/1}
 Group   2 Type H   : 5s2p1d contracted to 3s2p1d pattern {311/11/1}

Atom   0N    basis set group =>   1
Atom   1H    basis set group =>   2
Atom   2H    basis set group =>   2
Atom   3H    basis set group =>   2
---------------------------------
AUXILIARY/J BASIS SET INFORMATION
---------------------------------
There are 2 groups of distinct atoms

 Group   1 Type N   : 12s5p4d2f1g contracted to 6s4p3d1f1g pattern {711111/2111/211/2/1}
 Group   2 Type H   : 5s2p1d contracted to 3s1p1d pattern {311/2/1}

Atom   0N    basis set group =>   1
Atom   1H    basis set group =>   2
Atom   2H    basis set group =>   2
Atom   3H    basis set group =>   2
------------------------------------------------------------------------------
                             ORCA STARTUP CALCULATIONS
                           -- RI-GTO INTEGRALS CHOSEN --
------------------------------------------------------------------------------
------------------------------------------------------------------------------
                   ___                                                        
                  /   \      - P O W E R E D   B Y -                         
                 /     \                                                     
                 |  |  |   _    _      __       _____    __    __             
                 |  |  |  | |  | |    /  \     |  _  \  |  |  /  |          
                  \  \/   | |  | |   /    \    | | | |  |  | /  /          
                 / \  \   | |__| |  /  /\  \   | |_| |  |  |/  /          
                |  |  |   |  __  | /  /__\  \  |    /   |      \           
                |  |  |   | |  | | |   __   |  |    \   |  |\   \          
                \     /   | |  | | |  |  |  |  | |\  \  |  | \   \       
                 \___/    |_|  |_| |__|  |__|  |_| \__\ |__|  \__/        
                                                                              
                      - O R C A' S   B I G   F R I E N D -                    
                                      &                                       
                       - I N T E G R A L  F E E D E R -                       
                                                                              
 v1 FN, 2020, v2 2021, v3 2022-2024                                           
------------------------------------------------------------------------------


----------------------
SHARK INTEGRAL PACKAGE
----------------------

Number of atoms                             ...      4
Number of basis functions                   ...     73
Number of shells                            ...     29
Maximum angular momentum                    ...      3
Integral batch strategy                     ... SHARK/LIBINT Hybrid
RI-J (if used) integral strategy            ... SPLIT-RIJ (Revised 2003 algorithm where possible)
Printlevel                                  ...      1
Contraction scheme used                     ... SEGMENTED contraction
Prescreening option                         ... SCHWARTZ
   Thresh                                   ... 1.000e-12
   Tcut                                     ... 1.000e-14
   Tpresel                                  ... 1.000e-14 
Coulomb Range Separation                    ... NOT USED
Exchange Range Separation                   ... NOT USED
Multipole approximations                    ... NOT USED
Finite Nucleus Model                        ... NOT USED
CABS basis                                  ... NOT available
Auxiliary Coulomb fitting basis             ... AVAILABLE
   # of basis functions in Aux-J            ...     82
   # of shells in Aux-J                     ...     30
   Maximum angular momentum in Aux-J        ...      4
Auxiliary J/K fitting basis                 ... NOT available
Auxiliary Correlation fitting basis         ... NOT available
Auxiliary 'external' fitting basis          ... NOT available

Checking pre-screening integrals            ... done (  0.0 sec) Dimension = 29
Check shell pair data                       ... done (  0.0 sec)
Shell pair information
Shell pair cut-off parameter TPreSel        ...   1.0e-14
Total number of shell pairs                 ...       435
Shell pairs after pre-screening             ...       435
Total number of primitive shell pairs       ...      1021
Primitive shell pairs kept                  ...       991
          la=0 lb=0:    105 shell pairs
          la=1 lb=0:    126 shell pairs
          la=1 lb=1:     45 shell pairs
          la=2 lb=0:     70 shell pairs
          la=2 lb=1:     45 shell pairs
          la=2 lb=2:     15 shell pairs
          la=3 lb=0:     14 shell pairs
          la=3 lb=1:      9 shell pairs
          la=3 lb=2:      5 shell pairs
          la=3 lb=3:      1 shell pairs

Calculating one electron integrals          ... done (  0.0 sec)
Calculating RI/J V-Matrix + Cholesky decomp.... done (  0.0 sec)
Calculating Nuclear repulsion               ... done (  0.0 sec) ENN=     11.962882715546 Eh

Diagonalization of the overlap matrix:
Smallest eigenvalue                        ... 8.866e-04
Time for diagonalization                   ...    0.001 sec
Threshold for overlap eigenvalues          ... 1.000e-07
Number of eigenvalues below threshold      ... 0
Time for construction of square roots      ...    0.001 sec
Total time needed                          ...    0.007 sec

-------------------
DFT GRID GENERATION
-------------------

General Integration Accuracy     IntAcc      ... 4.388
Radial Grid Type                 RadialGrid  ... OptM3 with GC (2021)
Angular Grid (max. ang.)         AngularGrid ... 4 (Lebedev-302)
Angular grid pruning method      GridPruning ... 4 (adaptive)
Weight generation scheme         WeightScheme... mBecke (2022)
Basis function cutoff            BFCut       ... 1.0000e-12
Integration weight cutoff        WCut        ... 1.0000e-14
Partially contracted basis set               ... off
Rotationally invariant grid construction     ... off
Angular grids for H and He will be reduced by one unit

Total number of grid points                  ...    16020
Total number of batches                      ...      252
Average number of points per batch           ...       63
Average number of grid points per atom       ...     4005

--------------------
COSX GRID GENERATION
--------------------

GRIDX 1
-------
General Integration Accuracy     IntAcc      ... 3.816
Radial Grid Type                 RadialGrid  ... OptM3 with GC (2021)
Angular Grid (max. ang.)         AngularGrid ... 1 (Lebedev-50)
Angular grid pruning method      GridPruning ... 4 (adaptive)
Weight generation scheme         WeightScheme... mBecke (2022)
Basis function cutoff            BFCut       ... 1.0000e-12
Integration weight cutoff        WCut        ... 1.0000e-14
Partially contracted basis set               ... on
Rotationally invariant grid construction     ... off
Angular grids for H and He will be reduced by one unit

Total number of grid points                  ...     2101
Total number of batches                      ...       19
Average number of points per batch           ...      110
Average number of grid points per atom       ...      525
UseSFitting                                  ... on

GRIDX 2
-------
General Integration Accuracy     IntAcc      ... 4.020
Radial Grid Type                 RadialGrid  ... OptM3 with GC (2021)
Angular Grid (max. ang.)         AngularGrid ... 2 (Lebedev-110)
Angular grid pruning method      GridPruning ... 4 (adaptive)
Weight generation scheme         WeightScheme... mBecke (2022)
Basis function cutoff            BFCut       ... 1.0000e-12
Integration weight cutoff        WCut        ... 1.0000e-14
Partially contracted basis set               ... on
Rotationally invariant grid construction     ... off
Angular grids for H and He will be reduced by one unit

Total number of grid points                  ...     4304
Total number of batches                      ...       36
Average number of points per batch           ...      119
Average number of grid points per atom       ...     1076
UseSFitting                                  ... on

GRIDX 3
-------
General Integration Accuracy     IntAcc      ... 4.338
Radial Grid Type                 RadialGrid  ... OptM3 with GC (2021)
Angular Grid (max. ang.)         AngularGrid ... 3 (Lebedev-194)
Angular grid pruning method      GridPruning ... 4 (adaptive)
Weight generation scheme         WeightScheme... mBecke (2022)
Basis function cutoff            BFCut       ... 1.0000e-12
Integration weight cutoff        WCut        ... 1.0000e-14
Partially contracted basis set               ... on
Rotationally invariant grid construction     ... off
Angular grids for H and He will be reduced by one unit

Total number of grid points                  ...     9470
Total number of batches                      ...       75
Average number of points per batch           ...      126
Average number of grid points per atom       ...     2368
UseSFitting                                  ... on
Initializing property integral containers    ... done (  0.0 sec)

SHARK setup successfully completed in   0.2 seconds

Maximum memory used throughout the entire STARTUP-calculation: 13.7 MB
-------------------------------------------------------------------------------
                                 ORCA GUESS
                   Start orbitals & Density for SCF / CASSCF
-------------------------------------------------------------------------------

------------
SCF SETTINGS
------------
Hamiltonian:
 Density Functional     Method          .... DFT(GTOs)
 Exchange Functional    Exchange        .... PBE
   PBE kappa parameter   XKappa         ....  0.804000
   PBE mue parameter    XMuePBE         ....  0.219520
 Correlation Functional Correlation     .... PBE
   PBE beta parameter  CBetaPBE         ....  0.066725
 LDA part of GGA corr.  LDAOpt          .... PW91-LDA
 Gradients option       PostSCFGGA      .... off
 Hybrid DFT is turned on
   Fraction HF Exchange ScalHFX         ....  0.250000
   Scaling of DF-GGA-X  ScalDFX         ....  0.750000
   Scaling of DF-GGA-C  ScalDFC         ....  1.000000
   Scaling of DF-LDA-C  ScalLDAC        ....  1.000000
   Perturbative correction              ....  0.000000
   NL short-range parameter             ....  6.900000
 RI-approximation to the Coulomb term is turned on
   Number of AuxJ basis functions       .... 82
   RIJ-COSX (HFX calculated with COS-X)).... on


General Settings:
 Integral files         IntName         .... NH3_TDDFT-PBE0
 Hartree-Fock type      HFTyp           .... RHF
 Total Charge           Charge          ....    0
 Multiplicity           Mult            ....    1
 Number of Electrons    NEL             ....   10
 Basis Dimension        Dim             ....   73
 Nuclear Repulsion      ENuc            ....     11.9628827155 Eh

Convergence Acceleration:
 AO-DIIS                CNVDIIS         .... on
   Start iteration      DIISMaxIt       ....    12
   Startup error        DIISStart       ....  0.200000
   # of expansion vecs  DIISMaxEq       ....     5
   Bias factor          DIISBfac        ....   1.050
   Max. coefficient     DIISMaxC        ....  10.000
 MO-DIIS                CNVKDIIS        .... off
 Trust-Rad. Augm. Hess. CNVTRAH         .... auto
   Auto Start mean grad. ratio tolernc. ....  1.125000
   Auto Start start iteration           ....    50
   Auto Start num. interpolation iter.  ....    10
   Max. Number of Micro iterations      ....    24
   Max. Number of Macro iterations      .... Maxiter - #DIIS iter
   Number of Davidson start vectors     ....     2
   Converg. threshold    (grad. norm)   ....   2.000e-06
   Grad. Scal. Fac. for Micro threshold ....   0.100
   Minimum threshold for Micro iter.    ....   1.000e-02
   NR start threshold (gradient norm)   ....   1.000e-04
   Initial trust radius                 ....   0.400
   Minimum AH scaling param. (alpha)    ....   1.000
   Maximum AH scaling param. (alpha)    .... 1000.000
   Quad. conv. algorithm                .... NR
   White noise on init. David. guess    .... on
   Maximum white noise                  ....   0.010
   Pseudo random numbers                .... off
   Inactive MOs                         .... canonical
   Orbital update algorithm             .... Taylor
   Preconditioner                       .... Diag
   Full preconditioner red. dimension   ....   250
 SOSCF                  CNVSOSCF        .... on
   Start iteration      SOSCFMaxIt      ....   150
   Startup grad/error   SOSCFStart      ....  0.003300
   Hessian update       SOSCFHessUp     .... L-BFGS
 Level Shifting         CNVShift        .... on
   Level shift para.    LevelShift      ....    0.2500
   Turn off err/grad.   ShiftErr        ....    0.0010
 Zerner damping         CNVZerner       .... off
 Static damping         CNVDamp         .... on
   Fraction old density DampFac         ....    0.7000
   Max. Damping (<1)    DampMax         ....    0.9800
   Min. Damping (>=0)   DampMin         ....    0.0000
   Turn off err/grad.   DampErr         ....    0.1000

SCF Procedure:
 Maximum # iterations   MaxIter         ....   400
 SCF integral mode      SCFMode         .... Direct
   Integral package                     .... SHARK and LIBINT hybrid scheme
 Reset frequency        DirectResetFreq ....    20
 Integral Threshold     Thresh          ....  1.000e-12 Eh
 Primitive CutOff       TCut            ....  1.000e-14 Eh

Convergence Tolerance:
 Convergence Check Mode ConvCheckMode   .... Total+1el-Energy
 Convergence forced     ConvForced      .... 1
 Energy Change          TolE            ....  1.000e-09 Eh
 1-El. energy change                    ....  1.000e-06 Eh
 Orbital Gradient       TolG            ....  2.000e-06
 Orbital Rotation angle TolX            ....  2.000e-06
 DIIS Error             TolErr          ....  1.000e-08

------------------------------
INITIAL GUESS: MODEL POTENTIAL
------------------------------
Loading Hartree-Fock densities                     ... done
Calculating cut-offs                               ... done
Initializing the effective Hamiltonian             ... done
Setting up the integral package (SHARK)            ... done
Starting the Coulomb interaction                   ... done (   0.0 sec)
Making the grid                                    ... done (   0.0 sec)
Mapping shells                                     ... done
Starting the XC term evaluation                    ... done (   0.0 sec)
  promolecular density results
     # of electrons  =      9.997943079
     EX              =     -7.404790343
     EC              =     -0.305713060
     EX+EC           =     -7.710503403
Transforming the Hamiltonian                       ... done (   0.0 sec)
Diagonalizing the Hamiltonian                      ... done (   0.0 sec)
Back transforming the eigenvectors                 ... done (   0.0 sec)
Now organizing SCF variables                       ... done
                      ------------------
                      INITIAL GUESS DONE (   0.1 sec)
                      ------------------
             **** ENERGY FILE WAS UPDATED (NH3_TDDFT-PBE0.en.tmp) ****
Finished Guess after   0.1 sec
Maximum memory used throughout the entire GUESS-calculation: 7.6 MB

-------------------------------------------------------------------------------------------
                                      ORCA LEAN-SCF
                              memory conserving SCF solver
-------------------------------------------------------------------------------------------

----------------------------------------D-I-I-S--------------------------------------------
Iteration    Energy (Eh)           Delta-E    RMSDP     MaxDP     DIISErr   Damp  Time(sec)
-------------------------------------------------------------------------------------------
               ***  Starting incremental Fock matrix formation  ***
    1    -56.3991332163635519     0.00e+00  3.20e-03  6.14e-02  3.40e-01  0.700   0.3
    2    -56.4565011139983994    -5.74e-02  2.18e-03  4.42e-02  1.57e-01  0.700   0.2
                               ***Turning on AO-DIIS***
    3    -56.4767550132372946    -2.03e-02  7.10e-04  1.09e-02  4.39e-02  0.700   0.2
    4    -56.4887311127809824    -1.20e-02  8.58e-04  1.32e-02  1.57e-02  0.000   0.2
    5    -56.5157468001329732    -2.70e-02  3.20e-04  6.44e-03  1.20e-02  0.000   0.2
                              *** Initializing SOSCF ***
---------------------------------------S-O-S-C-F--------------------------------------
Iteration    Energy (Eh)           Delta-E    RMSDP     MaxDP     MaxGrad    Time(sec)
--------------------------------------------------------------------------------------
    6    -56.5158879135828869    -1.41e-04  9.53e-05  1.69e-03  2.25e-03     0.2
               *** Restarting incremental Fock matrix formation ***
    7    -56.5159150167969528    -2.71e-05  4.16e-05  5.56e-04  2.24e-04     0.2
    8    -56.5159152328250372    -2.16e-07  1.09e-05  1.79e-04  1.34e-04     0.2
    9    -56.5159153507615883    -1.18e-07  6.92e-06  8.26e-05  3.69e-05     0.2
   10    -56.5159153629124091    -1.22e-08  6.97e-07  9.88e-06  3.44e-06     0.2
   11    -56.5159153630135904    -1.01e-10  5.43e-08  7.87e-07  3.16e-07     0.2
                 **** Energy Check signals convergence ****

               *****************************************************
               *                     SUCCESS                       *
               *           SCF CONVERGED AFTER  11 CYCLES          *
               *****************************************************

Recomputing exchange energy using gridx3       ... done (    0.236 sec)
Old exchange energy                            :     -1.916843972 Eh
New exchange energy                            :     -1.916849524 Eh
Exchange energy change after final integration :     -0.000005552 Eh
Total energy after final integration           :    -56.515920915 Eh
             **** ENERGY FILE WAS UPDATED (NH3_TDDFT-PBE0.en.tmp) ****

----------------
TOTAL SCF ENERGY
----------------

Total Energy       :        -56.51592091528597 Eh           -1537.87639 eV

Components:
Nuclear Repulsion  :         11.96288271554579 Eh             325.52659 eV
Electronic Energy  :        -68.47879807855938 Eh           -1863.40283 eV
One Electron Energy:        -99.73135703812463 Eh           -2713.82819 eV
Two Electron Energy:         31.25255895956525 Eh             850.42536 eV

Virial components:
Potential Energy   :       -112.77603046461294 Eh           -3068.79180 eV
Kinetic Energy     :         56.26010954932697 Eh            1530.91541 eV
Virial Ratio       :          2.00454694041672

DFT components:
N(Alpha)           :        4.999998483417 electrons
N(Beta)            :        4.999998483417 electrons
N(Total)           :        9.999996966834 electrons
E(X)               :       -5.732779048756 Eh       
E(C)               :       -0.316246312107 Eh       
E(XC)              :       -6.049025360863 Eh       

---------------
SCF CONVERGENCE
---------------

  Last Energy change         ...    1.0118e-10  Tolerance :   1.0000e-09
  Last MAX-Density change    ...    7.8694e-07  Tolerance :   1.0000e-08
  Last RMS-Density change    ...    5.4307e-08  Tolerance :   1.0000e-09
  Last DIIS Error            ...    2.2498e-03  Tolerance :   1.0000e-08
  Last Orbital Gradient      ...    3.1649e-07  Tolerance :   2.0000e-06
  Last Orbital Rotation      ...    3.5324e-07  Tolerance :   2.0000e-06


----------------
ORBITAL ENERGIES
----------------

  NO   OCC          E(Eh)            E(eV) 
   0   2.0000     -14.354488      -390.6055 
   1   2.0000      -0.874526       -23.7971 
   2   2.0000      -0.473337       -12.8802 
   3   2.0000      -0.473333       -12.8800 
   4   2.0000      -0.279282        -7.5996 
   5   0.0000       0.038172         1.0387 
   6   0.0000       0.122481         3.3329 
   7   0.0000       0.122487         3.3330 
   8   0.0000       0.312107         8.4929 
   9   0.0000       0.312115         8.4931 
  10   0.0000       0.355553         9.6751 
  11   0.0000       0.444143        12.0857 
  12   0.0000       0.493396        13.4260 
  13   0.0000       0.506041        13.7701 
  14   0.0000       0.506043        13.7701 
  15   0.0000       0.579361        15.7652 
*Only the first 10 virtual orbitals were printed.

                    ********************************
                    * MULLIKEN POPULATION ANALYSIS *
                    ********************************

-----------------------
MULLIKEN ATOMIC CHARGES
-----------------------
   0 N :   -0.483558
   1 H :    0.161145
   2 H :    0.161207
   3 H :    0.161207
Sum of atomic charges:    0.0000000

--------------------------------
MULLIKEN REDUCED ORBITAL CHARGES
--------------------------------
  0 N s       :     3.514446  s :     3.514446
      pz      :     1.742579  p :     3.947607
      px      :     1.102481
      py      :     1.102547
      dz2     :     0.001544  d :     0.020952
      dxz     :     0.006923
      dyz     :     0.006928
      dx2y2   :     0.002777
      dxy     :     0.002779
      f0      :     0.000373  f :     0.000553
      f+1     :     0.000076
      f-1     :     0.000076
      f+2     :    -0.000061
      f-2     :    -0.000061
      f+3     :     0.000000
      f-3     :     0.000150

  1 H s       :     0.768154  s :     0.768154
      pz      :     0.032033  p :     0.065921
      px      :     0.016210
      py      :     0.017678
      dz2     :     0.000672  d :     0.004781
      dxz     :     0.000098
      dyz     :     0.002084
      dx2y2   :     0.000666
      dxy     :     0.001261

  2 H s       :     0.768106  s :     0.768106
      pz      :     0.032027  p :     0.065906
      px      :     0.017305
      py      :     0.016574
      dz2     :     0.000672  d :     0.004781
      dxz     :     0.001588
      dyz     :     0.000594
      dx2y2   :     0.001112
      dxy     :     0.000815

  3 H s       :     0.768106  s :     0.768106
      pz      :     0.032027  p :     0.065906
      px      :     0.017305
      py      :     0.016574
      dz2     :     0.000672  d :     0.004781
      dxz     :     0.001588
      dyz     :     0.000594
      dx2y2   :     0.001112
      dxy     :     0.000815



                     *******************************
                     * LOEWDIN POPULATION ANALYSIS *
                     *******************************

----------------------
LOEWDIN ATOMIC CHARGES
----------------------
   0 N :    0.181005
   1 H :   -0.060335
   2 H :   -0.060335
   3 H :   -0.060335

-------------------------------
LOEWDIN REDUCED ORBITAL CHARGES
-------------------------------
  0 N s       :     2.952060  s :     2.952060
      pz      :     1.516446  p :     3.773197
      px      :     1.128368
      py      :     1.128383
      dz2     :     0.004442  d :     0.086079
      dxz     :     0.015234
      dyz     :     0.015235
      dx2y2   :     0.025583
      dxy     :     0.025584
      f0      :     0.000539  f :     0.007660
      f+1     :     0.000003
      f-1     :     0.000003
      f+2     :     0.002480
      f-2     :     0.002480
      f+3     :     0.000000
      f-3     :     0.002154

  1 H s       :     0.745225  s :     0.745225
      pz      :     0.110527  p :     0.257293
      px      :     0.052983
      py      :     0.093783
      dz2     :     0.008668  d :     0.057817
      dxz     :     0.001678
      dyz     :     0.020562
      dx2y2   :     0.011580
      dxy     :     0.015329

  2 H s       :     0.745223  s :     0.745223
      pz      :     0.110529  p :     0.257295
      px      :     0.083584
      py      :     0.063182
      dz2     :     0.008668  d :     0.057817
      dxz     :     0.015841
      dyz     :     0.006399
      dx2y2   :     0.014392
      dxy     :     0.012517

  3 H s       :     0.745223  s :     0.745223
      pz      :     0.110529  p :     0.257295
      px      :     0.083584
      py      :     0.063182
      dz2     :     0.008668  d :     0.057817
      dxz     :     0.015841
      dyz     :     0.006399
      dx2y2   :     0.014392
      dxy     :     0.012517



                      *****************************
                      * MAYER POPULATION ANALYSIS *
                      *****************************

  NA   - Mulliken gross atomic population
  ZA   - Total nuclear charge
  QA   - Mulliken gross atomic charge
  VA   - Mayer's total valence
  BVA  - Mayer's bonded valence
  FA   - Mayer's free valence

  ATOM       NA         ZA         QA         VA         BVA        FA
  0 N      7.4836     7.0000    -0.4836     3.0047     3.0047     0.0000
  1 H      0.8389     1.0000     0.1611     1.0243     1.0243    -0.0000
  2 H      0.8388     1.0000     0.1612     1.0242     1.0242     0.0000
  3 H      0.8388     1.0000     0.1612     1.0242     1.0242    -0.0000

  Mayer bond orders larger than 0.100000
B(  0-N ,  1-H ) :   1.0016 B(  0-N ,  2-H ) :   1.0015 B(  0-N ,  3-H ) :   1.0015 


-------
TIMINGS
-------

Total SCF time: 0 days 0 hours 0 min 2 sec 

Total time                  ....       2.795 sec
Sum of individual times     ....       2.767 sec  ( 99.0%)

SCF preparation             ....       0.054 sec  (  1.9%)
Fock matrix formation       ....       2.094 sec  ( 74.9%)
  Startup                   ....       0.022 sec  (  1.1% of F)
  Split-RI-J                ....       0.100 sec  (  4.8% of F)
  Chain of spheres X        ....       1.310 sec  ( 62.6% of F)
  XC integration            ....       0.630 sec  ( 30.1% of F)
    Basis function eval.    ....       0.169 sec  ( 26.8% of XC)
    Density eval.           ....       0.093 sec  ( 14.8% of XC)
    XC-Functional eval.     ....       0.054 sec  (  8.6% of XC)
    XC-Potential eval.      ....       0.237 sec  ( 37.6% of XC)
Diagonalization             ....       0.000 sec  (  0.0%)
Density matrix formation    ....       0.206 sec  (  7.4%)
Total Energy calculation    ....       0.087 sec  (  3.1%)
Population analysis         ....       0.025 sec  (  0.9%)
Orbital Transformation      ....       0.017 sec  (  0.6%)
Orbital Orthonormalization  ....       0.000 sec  (  0.0%)
DIIS solution               ....       0.196 sec  (  7.0%)
SOSCF solution              ....       0.088 sec  (  3.1%)
Finished LeanSCF after   2.8 sec

Maximum memory used throughout the entire LEANSCF-calculation: 7.2 MB

------------------------------------------------------------------------------
                         ORCA PROPERTY INTEGRAL CALCULATIONS
------------------------------------------------------------------------------

GBWName                                   ... NH3_TDDFT-PBE0.gbw
Number of atoms                           ...      4
Number of basis functions                 ...     73
Max core memory                           ...   4000 MB

Dipole integrals                          ... YES
Quadrupole integrals                      ...  NO
Linear momentum integrals                 ... YES
Angular momentum integrals                ... YES
Higher moments length integrals           ...  NO
Higher moments velocity integrals         ...  NO
Kinetic energy integrals                  ...  NO
GIAO right hand sides                     ...  NO
GIAO dipole derivative integrals          ...  NO
SOC integrals                             ...  NO
EPR diamagnetic integrals (GIAO)          ...  NO
EPR gauge integrals                       ...  NO
Field gradient integrals                  ...  NO (   0 nuclei)
Spin-dipole/Fermi contact integrals       ...  NO (   0 nuclei)
Contact density integrals                 ...  NO (   0 nuclei)
Nucleus-orbit integrals                   ...  NO (   0 nuclei)
Geometric perturbations                   ...  NO (   4 nuclei)

Choice of electric origin   ... Center of mass
Position of electric origin ... (  0.0000, -0.0000,  0.0876) 
Choice of magnetic origin   ... GIAO
Position of magnetic origin ... (  0.0000,  0.0000,  0.0000) 

Calculating integrals                     ... Electric Dipole (Length)     done (  0.0 sec)
Calculating integrals                     ... Linear Momentum              done (  0.0 sec)
Calculating integrals                     ... Angular Momentum  (ElOri)    done (  0.0 sec)

Property integrals calculated in   0.0 sec

Maximum memory used throughout the entire PROPINT-calculation: 7.8 MB
------------------------------------------------------------------------------
                        ORCA TD-DFT/TDA CALCULATION
------------------------------------------------------------------------------

Input orbitals are from        ... NH3_TDDFT-PBE0.gbw
CI-vector output               ... NH3_TDDFT-PBE0.cis
Solver                         ... FN-2001
Tamm-Dancoff approximation     ... operative
CIS-Integral strategy          ... AO-integrals
Integral handling              ... AO integral Direct
Max. core memory used          ... 4000 MB
Reference state                ... RHF
Generation of triplets         ... off
Follow IRoot                   ... off
Number of operators            ... 1
Orbital ranges used for CIS calculation:
 Operator 0:  Orbitals   1...  4  to   5... 72
XAS localization array:
 Operator 0:  Orbitals  -1... -1

-------------------
XC-INTEGRATION GRID
-------------------

General Integration Accuracy     IntAcc      ... 3.467
Radial Grid Type                 RadialGrid  ... OptM3 with GC (2021)
Angular Grid (max. ang.)         AngularGrid ... 1 (Lebedev-50)
Angular grid pruning method      GridPruning ... 4 (adaptive)
Weight generation scheme         WeightScheme... mBecke (2022)
Basis function cutoff            BFCut       ... 1.0000e-12
Integration weight cutoff        WCut        ... 1.0000e-14
Partially contracted basis set               ... off
Rotationally invariant grid construction     ... off
Angular grids for H and He will be reduced by one unit

Total number of grid points                  ...     2268
Total number of batches                      ...       38
Average number of points per batch           ...       59
Average number of grid points per atom       ...      567

---------------------
COSX-INTEGRATION GRID
---------------------

General Integration Accuracy     IntAcc      ... 3.067
Radial Grid Type                 RadialGrid  ... OptM3 with GC (2021)
Angular Grid (max. ang.)         AngularGrid ... 1 (Lebedev-50)
Angular grid pruning method      GridPruning ... 4 (adaptive)
Weight generation scheme         WeightScheme... mBecke (2022)
Basis function cutoff            BFCut       ... 1.0000e-12
Integration weight cutoff        WCut        ... 1.0000e-14
Partially contracted basis set               ... on
Rotationally invariant grid construction     ... off
Angular grids for H and He will be reduced by one unit

Total number of grid points                  ...     1053
Total number of batches                      ...        9
Average number of points per batch           ...      117
Average number of grid points per atom       ...      263

---------------
TD-DFT XC SETUP
---------------

DFT calculation                         ... on
Name of the grid file                   ... NH3_TDDFT-PBE0.grid_cis.tmp
RI-approximation                        ... on
Aux-basis dimension                     ... 0
Exchange functional (TD-DFT)            ... PBE
   PBE kappa parameter  XKappa (TD-DFT) ...  0.804000
   PBE mue parameter   XMuePBE (TD-DFT) ...  0.219520
Correlation functional (TD-DFT)         ... PBE
   PBE beta parameter CBetaPBE (TD-DFT) ...  0.066725
 LDA part of GGA corr.  LDAOpt (TD-DFT) ... PW91-LDA
Hybrid DFT                              ... on
   Exchange mixing (TD-DFT)             ...  0.250
   GGA exch. scaling (TD-DFT)           ...  0.750
   GGA corr. scaling (TD-DFT)           ...  1.000

Building densities             ... done
Calculating rho(r) on the grid ... done
Building xc-kernel on the grid ... done
                    *** TD-DFT CALCULATION INITIALIZED ***

------------------------
DAVIDSON-DIAGONALIZATION
------------------------

Dimension of the eigenvalue problem            ...    272
Number of roots to be determined               ...     10
Maximum size of the expansion space            ...    100
Maximum number of iterations                   ...    100
Convergence tolerance for the residual         ...    1.000e-07
Convergence tolerance for the energies         ...    1.000e-07
Orthogonality tolerance                        ...    1.000e-14
Level Shift                                    ...    0.000e+00
Constructing the preconditioner                ... o.k.
Building the initial guess                     ... o.k.
Number of trial vectors determined             ...    100


                       ****Iteration    0****
   Time for iteration     :  TOTAL=0.7 TRAFO=0.3 RIJ=0.0 COSX=0.1 XC=0.2
   Size of expansion space: 30
   Lowest Energy          :     0.256997129154
   Maximum Energy change  :     0.535775591835 (vector 9)
   Maximum residual norm  :     0.001867084368

                       ****Iteration    1****
   Time for iteration     :  TOTAL=0.3 TRAFO=0.1 RIJ=0.0 COSX=0.1 XC=0.1
   Size of expansion space: 40
   Lowest Energy          :     0.256172170706
   Maximum Energy change  :     0.001746952911 (vector 7)
   Maximum residual norm  :     0.000016107105

                       ****Iteration    2****
   Time for iteration     :  TOTAL=0.3 TRAFO=0.1 RIJ=0.0 COSX=0.1 XC=0.1
   Size of expansion space: 50
   Lowest Energy          :     0.256168036456
   Maximum Energy change  :     0.000012986283 (vector 9)
   Maximum residual norm  :     0.000000863191

                       ****Iteration    3****
   Time for iteration     :  TOTAL=0.3 TRAFO=0.1 RIJ=0.0 COSX=0.1 XC=0.1
   Size of expansion space: 60
   Lowest Energy          :     0.256168031409
   Maximum Energy change  :     0.000000614871 (vector 9)
   Maximum residual norm  :     0.000000006409

      *** CONVERGENCE OF RESIDUAL NORM REACHED ***

Storing the converged CI vectors               ... NH3_TDDFT-PBE0.cis1

                 *** DAVIDSON DONE ***

Total time for solving the CIS problem:     5.260sec

------------------------------------
TD-DFT/TDA EXCITED STATES (SINGLETS)
------------------------------------

the weight of the individual excitations are printed if larger than 1.0e-02

STATE  1:  E=   0.256168 au      6.971 eV    56222.4 cm**-1 <S**2> =   0.000000 Mult 1
     4a ->   5a  :     0.996231 (c= -0.99811391)

STATE  2:  E=   0.336089 au      9.145 eV    73763.1 cm**-1 <S**2> =   0.000000 Mult 1
     4a ->   7a  :     0.994224 (c= -0.99710785)

STATE  3:  E=   0.336125 au      9.146 eV    73770.9 cm**-1 <S**2> =   0.000000 Mult 1
     4a ->   6a  :     0.994184 (c= -0.99708763)

STATE  4:  E=   0.451401 au     12.283 eV    99071.1 cm**-1 <S**2> =   0.000000 Mult 1
     3a ->   5a  :     0.994212 (c= -0.99710199)

STATE  5:  E=   0.451569 au     12.288 eV    99108.0 cm**-1 <S**2> =   0.000000 Mult 1
     2a ->   5a  :     0.994198 (c=  0.99709483)

STATE  6:  E=   0.512576 au     13.948 eV   112497.5 cm**-1 <S**2> =   0.000000 Mult 1
     2a ->   7a  :     0.042998 (c= -0.20735994)
     3a ->   6a  :     0.042104 (c=  0.20519227)
     4a ->   9a  :     0.904976 (c= -0.95130228)

STATE  7:  E=   0.512727 au     13.952 eV   112530.6 cm**-1 <S**2> =   0.000000 Mult 1
     2a ->   6a  :     0.044192 (c=  0.21021874)
     3a ->   7a  :     0.043414 (c=  0.20835945)
     4a ->   8a  :     0.902526 (c=  0.95001360)

STATE  8:  E=   0.525444 au     14.298 eV   115321.7 cm**-1 <S**2> =   0.000000 Mult 1
     2a ->   7a  :     0.500535 (c= -0.70748525)
     3a ->   6a  :     0.493181 (c= -0.70226844)

STATE  9:  E=   0.534240 au     14.537 eV   117252.0 cm**-1 <S**2> =   0.000000 Mult 1
     2a ->   7a  :     0.449161 (c=  0.67019501)
     3a ->   6a  :     0.457407 (c= -0.67631898)
     4a ->   9a  :     0.080184 (c= -0.28316711)

STATE 10:  E=   0.534241 au     14.537 eV   117252.4 cm**-1 <S**2> =   0.000000 Mult 1
     2a ->   6a  :     0.430721 (c=  0.65629313)
     3a ->   7a  :     0.472965 (c=  0.68772474)
     4a ->   8a  :     0.082465 (c= -0.28716748)


-----------------------------
TD-DFT/TDA-EXCITATION SPECTRA
-----------------------------

Center of mass = (  0.0000, -0.0000,  0.0876)
Generating CIS transition densities           ... done

----------------------------------------------------------------------------------------------------
                     ABSORPTION SPECTRUM VIA TRANSITION ELECTRIC DIPOLE MOMENTS    
----------------------------------------------------------------------------------------------------
     Transition      Energy     Energy  Wavelength fosc(D2)      D2        DX        DY        DZ   
                      (eV)      (cm-1)    (nm)                 (au**2)    (au)      (au)      (au)  
----------------------------------------------------------------------------------------------------
  0-1A  ->  1-1A    6.970687   56222.4   177.9   0.059530619   0.34858   0.00000   0.00005  -0.59041
  0-1A  ->  2-1A    9.145459   73763.1   135.6   0.027671044   0.12350   0.35142   0.00025  -0.00000
  0-1A  ->  3-1A    9.146424   73770.9   135.6   0.027623015   0.12327   0.00026  -0.35110  -0.00042
  0-1A  ->  4-1A   12.283252   99071.1   100.9   0.187808288   0.62408  -0.78999   0.00102  -0.00000
  0-1A  ->  5-1A   12.287827   99108.0   100.9   0.188045579   0.62464   0.00102   0.79034   0.00025
  0-1A  ->  6-1A   13.947907  112497.5    88.9   0.019715457   0.05770  -0.24020  -0.00003   0.00000
  0-1A  ->  7-1A   13.952018  112530.6    88.9   0.019057420   0.05575  -0.00003   0.23612   0.00126
  0-1A  ->  8-1A   14.298071  115321.7    86.7   0.000004657   0.00001   0.00365  -0.00002  -0.00000
  0-1A  ->  9-1A   14.537398  117252.0    85.3   0.191181889   0.53679  -0.73263  -0.00598  -0.00003
  0-1A  -> 10-1A   14.537441  117252.4    85.3   0.191420787   0.53746   0.00597  -0.73297  -0.01303

----------------------------------------------------------------------------------------------------
                     ABSORPTION SPECTRUM VIA TRANSITION VELOCITY DIPOLE MOMENTS    
----------------------------------------------------------------------------------------------------
     Transition      Energy     Energy  Wavelength fosc(P2)      P2        PX        PY        PZ   
                      (eV)      (cm-1)    (nm)                 (au**2)    (au)      (au)      (au)  
----------------------------------------------------------------------------------------------------
  0-1A  ->  1-1A    6.970687   56222.4   177.9   0.077085933   0.02962  -0.00000   0.00004   0.17211
  0-1A  ->  2-1A    9.145459   73763.1   135.6   0.009662384   0.00487  -0.06979  -0.00005   0.00000
  0-1A  ->  3-1A    9.146424   73770.9   135.6   0.009623467   0.00485  -0.00005   0.06966   0.00018
  0-1A  ->  4-1A   12.283252   99071.1   100.9   0.163070382   0.11042   0.33229  -0.00043   0.00000
  0-1A  ->  5-1A   12.287827   99108.0   100.9   0.163285571   0.11060  -0.00043  -0.33257  -0.00016
  0-1A  ->  6-1A   13.947907  112497.5    88.9   0.011929755   0.00917   0.09577   0.00001  -0.00000
  0-1A  ->  7-1A   13.952018  112530.6    88.9   0.011483648   0.00883   0.00001  -0.09398  -0.00057
  0-1A  ->  8-1A   14.298071  115321.7    86.7   0.000003528   0.00000  -0.00167   0.00001   0.00000
  0-1A  ->  9-1A   14.537398  117252.0    85.3   0.130014287   0.10419   0.32277   0.00263   0.00002
  0-1A  -> 10-1A   14.537441  117252.4    85.3   0.130081290   0.10424  -0.00263   0.32279   0.00666

------------------------------------------------------------------------------------------
                     CD SPECTRUM VIA TRANSITION ELECTRIC DIPOLE MOMENTS    
------------------------------------------------------------------------------------------
     Transition      Energy     Energy  Wavelength    R        MX        MY        MZ   
                      (eV)      (cm-1)    (nm)   (1e40*cgs)   (au)      (au)      (au)  
------------------------------------------------------------------------------------------
  0-1A  ->  1-1A    6.970687   56222.4   177.9   -0.00001   0.00001   0.00000  -0.00000
  0-1A  ->  2-1A    9.145459   73763.1   135.6   -0.00003   0.00006  -0.08786  -0.00000
  0-1A  ->  3-1A    9.146424   73770.9   135.6    0.00005  -0.08792  -0.00006  -0.00000
  0-1A  ->  4-1A   12.283252   99071.1   100.9    0.00003  -0.00007  -0.05703   0.00001
  0-1A  ->  5-1A   12.287827   99108.0   100.9   -0.00006  -0.05698   0.00007   0.00000
  0-1A  ->  6-1A   13.947907  112497.5    88.9   -0.00003  -0.00002   0.17104   0.00048
  0-1A  ->  7-1A   13.952018  112530.6    88.9    0.00008   0.17055   0.00002   0.00000
  0-1A  ->  8-1A   14.298071  115321.7    86.7    0.00005  -0.00000  -0.00054   0.20613
  0-1A  ->  9-1A   14.537398  117252.0    85.3   -0.00164  -0.00061   0.07442   0.00085
  0-1A  -> 10-1A   14.537441  117252.4    85.3    0.00154  -0.07504  -0.00061  -0.00001

------------------------------------------------------------------------------------------
                     CD SPECTRUM VIA TRANSITION VELOCITY DIPOLE MOMENTS    
------------------------------------------------------------------------------------------
     Transition      Energy     Energy  Wavelength    R        MX        MY        MZ   
                      (eV)      (cm-1)    (nm)   (1e40*cgs)   (au)      (au)      (au)  
------------------------------------------------------------------------------------------
  0-1A  ->  1-1A    6.970687   56222.4   177.9   -0.00001   0.00001   0.00000  -0.00000
  0-1A  ->  2-1A    9.145459   73763.1   135.6   -0.00004   0.00006  -0.08786  -0.00000
  0-1A  ->  3-1A    9.146424   73770.9   135.6    0.00006  -0.08792  -0.00006  -0.00000
  0-1A  ->  4-1A   12.283252   99071.1   100.9    0.00004  -0.00007  -0.05703   0.00001
  0-1A  ->  5-1A   12.287827   99108.0   100.9   -0.00006  -0.05698   0.00007   0.00000
  0-1A  ->  6-1A   13.947907  112497.5    88.9   -0.00004  -0.00002   0.17104   0.00048
  0-1A  ->  7-1A   13.952018  112530.6    88.9    0.00009   0.17055   0.00002   0.00000
  0-1A  ->  8-1A   14.298071  115321.7    86.7    0.00004  -0.00000  -0.00054   0.20613
  0-1A  ->  9-1A   14.537398  117252.0    85.3   -0.00144  -0.00061   0.07442   0.00085
  0-1A  -> 10-1A   14.537441  117252.4    85.3    0.00134  -0.07504  -0.00061  -0.00001

Total run time:        5.501 sec

           *** ORCA-CIS/TD-DFT FINISHED WITHOUT ERROR ***
-----------------------
CIS/TD-DFT TOTAL ENERGY
-----------------------

    E(SCF)  =    -56.515920915 Eh
    DE(CIS) =      0.256168031 Eh (Root  1)
    ----------------------------- ---------
    E(tot)  =    -56.259752884 Eh


------------------------
TD-DFT GRADIENT XC SETUP
------------------------

Building densities                     ... done
Calculating rho(r) on the grid         ... done
Building xc-kernel on the grid         ... done
Building xc 3rd derivative on the grid ... done
                *** TD-DFT GRADIENT CALCULATION INITIALIZED ***

--------------------------
TD-DFT/TDA RELAXED DENSITY
--------------------------

Reference wavefunction             ... RHF
State of interest                  ... 1
Basis dimension                    ... 73
DFT-XC contribution needed         ... YES
RI-approximation                   ... YES
Do Coulomb                         ... YES
Do Exchange                        ... YES
Need Hartree-Fock Exchange         ... YES
facj, facx                         ...  2.000, -0.250
Conventional                       ... NO
Range separation                   ... NO
Triplet state                      ... NO
Spin Flip                          ... NO
CIS-vectors being read from        ... NH3_TDDFT-PBE0.cis
 => Number of Vectors found: 10
 => Orbital Window: 1...4 -> 5...72

Reading the CIS file                     ... done
Norm of the CI vector                    ... 1.000000000
Making the CIS (pseudo)densities         ... done
Making operators G(D) and Q(T)           ... (SHARK-ok)done
Transforming the Fock operators          ... done
Making the frozen-core relaxed density   ... done
Constructing the G(H) operator           ... (SHARK-ok)done
Transforming the G(H) operator           ... done
Calculating the CIS Lagrangian           ... done
Solving the Z-vector equations           ... 

Using XC Grid                  ... (NH3_TDDFT-PBE0.grid_cpscf.tmp) 
Recalculating density on grid  ... (NH3_TDDFT-PBE0.grho_cpscf0.tmp) done
Calculating the xc-kernel      ... (NH3_TDDFT-PBE0.fxc_cpscf0.tmp) done

-------------------
SHARK CP-SCF DRIVER
-------------------

Dimension of the orbital basis          ...     73
Dimension of the CPSCF-problem          ...    340
Number of operators                     ...      1
Max. number of iterations               ...    128
Convergence Tolerance                   ... 3.0e-05
Number of perturbations                 ...      1
Perturbation type                       ... REAL

----------------------------
POPLE LINEAR EQUATION SOLVER
----------------------------

  ITERATION   0:   ||err||_max =   1.4050e+00 (   0.1 sec)
  ITERATION   1:   ||err||_max =   1.6922e-02 (   0.1 sec)
  ITERATION   2:   ||err||_max =   1.5158e-03 (   0.1 sec)
  ITERATION   3:   ||err||_max =   7.7300e-05 (   0.1 sec)
  ITERATION   4:   ||err||_max =   6.3560e-06 (   0.2 sec)

Finalizing the relaxed density           ... done
Storing the relaxed density              ... done
Constructing the G(Z) operator           ... (SHARK-ok)done
Adding the XC terms                      ... done
Transforming the G(Z) operator           ... done
Making the W-matrix                      ... done
Finalizing the W-matrix                  ... done
Transforming the W-matrix                ... done
Nuc. rep. gradient        (SHARK) ... done (  0.0 sec)
HCore & Overlap gradient  (SHARK) ... done (  0.0 sec)
Split-RIJ-J gradient      (SHARK) ... done (  0.1 sec)
COSX-gradient                     ... done (  1.8 sec)

                 ---------------------------
                 EXCITED STATE GRADIENT DONE
                 ---------------------------

------------------
CARTESIAN GRADIENT
------------------

   1   N   :    0.000000065    0.000561229    0.030454633
   2   H   :    0.000000054   -0.038305817   -0.010003932
   3   H   :    0.032709889    0.018900858   -0.010245876
   4   H   :   -0.032710001    0.018900996   -0.010246248

Difference to translation invariance:
           :    0.0000000066    0.0000572667   -0.0000414231

Difference to rotation invariance:
           :    0.0000562400    0.0000006133    0.0000000179

Norm of the Cartesian gradient     ...    0.0745623809
RMS gradient                       ...    0.0215243053
MAX gradient                       ...    0.0383058174

------------------------------------------------------------------------------
                  RELAXED CIS/TDA DENSITY POPULATION ANALYSIS
                                   IROOT 1
------------------------------------------------------------------------------
------------------------------------------------------------------------------
                           ORCA POPULATION ANALYSIS
------------------------------------------------------------------------------
Input electron density              ... NH3_TDDFT-PBE0.cispre.singlet.iroot1
BaseName (.gbw .S,...)              ... NH3_TDDFT-PBE0

                    ********************************
                    * MULLIKEN POPULATION ANALYSIS *
                    ********************************

-----------------------
MULLIKEN ATOMIC CHARGES
-----------------------
   0 N :    0.935611
   1 H :   -0.312682
   2 H :   -0.311465
   3 H :   -0.311464
Sum of atomic charges:    0.0000000

--------------------------------
MULLIKEN REDUCED ORBITAL CHARGES
--------------------------------
  0 N s       :     2.715439  s :     2.715439
      pz      :     0.879664  p :     3.338405
      px      :     1.228775
      py      :     1.229966
      dz2     :    -0.002866  d :     0.010836
      dxz     :     0.003429
      dyz     :     0.003483
      dx2y2   :     0.003418
      dxy     :     0.003372
      f0      :    -0.000135  f :    -0.000291
      f+1     :     0.000003
      f-1     :     0.000002
      f+2     :    -0.000079
      f-2     :    -0.000080
      f+3     :     0.000000
      f-3     :    -0.000000
  1 H s       :     1.297860  s :     1.297860
      pz      :     0.007295  p :     0.011399
      px      :     0.013381
      py      :    -0.009278
      dz2     :     0.000412  d :     0.003424
      dxz     :     0.000131
      dyz     :     0.001084
      dx2y2   :     0.000524
      dxy     :     0.001272
  2 H s       :     1.296708  s :     1.296708
      pz      :     0.007267  p :     0.011323
      px      :    -0.003774
      py      :     0.007830
      dz2     :     0.000420  d :     0.003434
      dxz     :     0.000844
      dyz     :     0.000371
      dx2y2   :     0.001083
      dxy     :     0.000716
  3 H s       :     1.296707  s :     1.296707
      pz      :     0.007267  p :     0.011323
      px      :    -0.003774
      py      :     0.007830
      dz2     :     0.000420  d :     0.003434
      dxz     :     0.000844
      dyz     :     0.000371
      dx2y2   :     0.001083
      dxy     :     0.000716


                     *******************************
                     * LOEWDIN POPULATION ANALYSIS *
                     *******************************

----------------------
LOEWDIN ATOMIC CHARGES
----------------------
   0 N :    0.769654
   1 H :   -0.256804
   2 H :   -0.256425
   3 H :   -0.256424

-------------------------------
LOEWDIN REDUCED ORBITAL CHARGES
-------------------------------
  0 N s       :     2.960124  s :     2.960124
      pz      :     0.818392  p :     3.191169
      px      :     1.186336
      py      :     1.186441
      dz2     :     0.008179  d :     0.072062
      dxz     :     0.009241
      dyz     :     0.009235
      dx2y2   :     0.022705
      dxy     :     0.022702
      f0      :     0.000605  f :     0.006992
      f+1     :    -0.000008
      f-1     :    -0.000008
      f+2     :     0.002248
      f-2     :     0.002249
      f+3     :     0.000000
      f-3     :     0.001907
  1 H s       :     0.925254  s :     0.925254
      pz      :     0.056323  p :     0.273533
      px      :     0.051778
      py      :     0.165432
      dz2     :     0.006964  d :     0.058017
      dxz     :     0.002082
      dyz     :     0.017663
      dx2y2   :     0.014507
      dxy     :     0.016802
  2 H s       :     0.924957  s :     0.924957
      pz      :     0.056323  p :     0.273447
      px      :     0.136919
      py      :     0.080205
      dz2     :     0.006966  d :     0.058021
      dxz     :     0.013768
      dyz     :     0.005978
      dx2y2   :     0.016232
      dxy     :     0.015077
  3 H s       :     0.924956  s :     0.924956
      pz      :     0.056323  p :     0.273447
      px      :     0.136919
      py      :     0.080205
      dz2     :     0.006966  d :     0.058021
      dxz     :     0.013768
      dyz     :     0.005978
      dx2y2   :     0.016232
      dxy     :     0.015077


                      *****************************
                      * MAYER POPULATION ANALYSIS *
                      *****************************

  NA   - Mulliken gross atomic population
  ZA   - Total nuclear charge
  QA   - Mulliken gross atomic charge
  VA   - Mayer's total valence
  BVA  - Mayer's bonded valence
  FA   - Mayer's free valence

  ATOM       NA         ZA         QA         VA         BVA        FA
  0 N      6.0644     7.0000     0.9356     0.5359     0.5688    -0.0329
  1 H      1.3127     1.0000    -0.3127     1.5304     0.8927     0.6378
  2 H      1.3115     1.0000    -0.3115     1.5299     0.8928     0.6371
  3 H      1.3115     1.0000    -0.3115     1.5299     0.8929     0.6371

  Mayer bond orders larger than 0.100000
B(  0-N ,  1-H ) :   0.1890 B(  0-N ,  2-H ) :   0.1899 B(  0-N ,  3-H ) :   0.1899 
B(  1-H ,  2-H ) :   0.3518 B(  1-H ,  3-H ) :   0.3518 B(  2-H ,  3-H ) :   0.3511 



-------
TIMINGS
-------

Total TD-DFT gradient time  ....        3.886 sec

Fock matrix formation       ....       0.846 sec  ( 21.8%)
  Coulomb formation         ....       0.599 sec  ( 70.8% of F)
  XC integration            ....       0.247 sec  ( 29.2% of F)
Z-vector equation           ....       0.688 sec  ( 17.7%)
One electron gradient       ....       0.009 sec  (  0.2%)
RI-J Coulomb gradient       ....       0.063 sec  (  1.6%)
COSX gradient               ....       0.321 sec  (  8.3%)
XC gradient                 ....       1.783 sec  ( 45.9%)

Maximum memory used throughout the entire CIS-calculation: 16.9 MB
=> NOW LEAVING ORCA_CIS

-------------------------   --------------------
FINAL SINGLE POINT ENERGY       -56.259752883877
-------------------------   --------------------

------------------------------------------------------------------------------
                         ORCA GEOMETRY RELAXATION STEP
------------------------------------------------------------------------------

Reading the OPT-File                    .... done
Getting information on internals        .... done
Copying old internal coords+grads       .... done
Making the new internal coordinates     .... (2022 redundants) done
Validating the new internal coordinates .... (2022 redundants) done
Calculating the B-matrix                .... done
Calculating the G,G- and P matrices     .... done
Transforming gradient to internals      .... done
Projecting the internal gradient        .... done
Number of atoms                         ....   4
Number of internal coordinates          ....   7
Current Energy                          ....   -56.259752884 Eh
Current gradient norm                   ....     0.074562381 Eh/bohr
Maximum allowed component of the step   ....  0.300
Current trust radius                    ....  0.300
Evaluating the initial hessian          ....  (Almloef) done
Projecting the Hessian                  .... done
Forming the augmented Hessian           .... done
Diagonalizing the augmented Hessian     .... done
Last element of RFO vector              ....  0.946652449
Lowest eigenvalues of augmented Hessian:
 -0.020786346  0.121609405  0.302702146  0.304446175  0.430235541
Length of the computed step             ....  0.340416726
Warning: the length of the step is outside the trust region - taking restricted step instead
The input lambda is                     ....     0.108475
   iter:   5  x=    0.101884  g=25130.145021 f(x)=    63.549609
   iter:  10  x=    0.053579  g=   59.886377 f(x)=     1.075311
   iter:  15  x=   -0.040953  g=    1.080797 f(x)=     0.002113
The output lambda is                    ....    -0.040990 (18 iterations)
The final length of the internal step   ....  0.300000000
Converting the step to Cartesian space:
 Initial RMS(Int)=    0.1133893419
Transforming coordinates:
 Iter   0:  RMS(Cart)=    0.0725855128 RMS(Int)=    0.1116043452
 Iter   5:  RMS(Cart)=    0.0000003461 RMS(Int)=    0.0000005122
done
Storing new coordinates                 .... done

                                .--------------------.
          ----------------------|Geometry convergence|-------------------------
          Item                value                   Tolerance       Converged
          ---------------------------------------------------------------------
          RMS gradient        0.0271063130            0.0000100000      NO
          MAX gradient        0.0324576835            0.0001000000      NO
          RMS step            0.1133893419            0.0000100000      NO
          MAX step            0.2157157850            0.0001000000      NO
          ........................................................
          Max(Bonds)      0.0357      Max(Angles)    6.31
          Max(Dihed)        0.00      Max(Improp)   12.36
          ---------------------------------------------------------------------

The optimization has not yet converged - more geometry cycles are needed


    ---------------------------------------------------------------------------
                         Redundant Internal Coordinates
                            (Angstroem and degrees)

        Definition                    Value    dE/dq     Step     New-Value
    ----------------------------------------------------------------------------
     1. B(H   1,N   0)                1.0116 -0.031788  0.0357    1.0473   
     2. B(H   2,N   0)                1.0116 -0.031194  0.0350    1.0466   
     3. B(H   3,N   0)                1.0116 -0.031194  0.0350    1.0466   
     4. A(H   1,N   0,H   3)          106.84 -0.011676    5.44    112.28   
     5. A(H   2,N   0,H   3)          106.84 -0.029335    6.31    113.16   
     6. A(H   1,N   0,H   2)          106.84 -0.011676    5.44    112.28   
     7. I(H   1,H   3,H   2,N   0)     60.91  0.032458  -12.36     48.55   
    ----------------------------------------------------------------------------

Geometry step timings:
Preparation and reading OPT file:      0.001 s (33.333 %)
Internal coordinates            :      0.000 s ( 0.000 %)
B/P matrices and projection     :      0.000 s ( 0.000 %)
Hessian update/contruction      :      0.001 s (33.333 %)
Making the step                 :      0.001 s (33.333 %)
Converting the step to Cartesian:      0.000 s ( 0.000 %)
Storing new data                :      0.000 s ( 0.000 %)
Checking convergence            :      0.000 s ( 0.000 %)
Final printing                  :      0.000 s ( 0.000 %)
Total time                      :      0.003 s

Time for energy+gradient        :     12.775 s
Time for complete geometry iter :     12.830 s

         *************************************************************
         *                GEOMETRY OPTIMIZATION CYCLE   2            *
         *************************************************************
---------------------------------
CARTESIAN COORDINATES (ANGSTROEM)
---------------------------------
  N      0.000000   -0.003542    0.054746
  H     -0.000000    0.999473   -0.246432
  H     -0.872380   -0.497966   -0.245001
  H      0.872380   -0.497966   -0.245001

----------------------------
CARTESIAN COORDINATES (A.U.)
----------------------------
  NO LB      ZA    FRAG     MASS         X           Y           Z
   0 N     7.0000    0    14.007    0.000000   -0.006694    0.103455
   1 H     1.0000    0     1.008   -0.000000    1.888730   -0.465688
   2 H     1.0000    0     1.008   -1.648559   -0.941019   -0.462986
   3 H     1.0000    0     1.008    1.648559   -0.941019   -0.462985

--------------------------------
INTERNAL COORDINATES (ANGSTROEM)
--------------------------------
 N      0   0   0     0.000000000000     0.00000000     0.00000000
 H      1   0   0     1.047256931676     0.00000000     0.00000000
 H      1   2   0     1.046589641944   111.72117912     0.00000000
 H      1   2   3     1.046589778575   111.72120831   127.59889211

---------------------------
INTERNAL COORDINATES (A.U.)
---------------------------
 N      0   0   0     0.000000000000     0.00000000     0.00000000
 H      1   0   0     1.979028792718     0.00000000     0.00000000
 H      1   2   0     1.977767797873   111.72117912     0.00000000
 H      1   2   3     1.977768056067   111.72120831   127.59889211

------------------------------------------------------------------------------
                   ___                                                        
                  /   \      - P O W E R E D   B Y -                         
                 /     \                                                     
                 |  |  |   _    _      __       _____    __    __             
                 |  |  |  | |  | |    /  \     |  _  \  |  |  /  |          
                  \  \/   | |  | |   /    \    | | | |  |  | /  /          
                 / \  \   | |__| |  /  /\  \   | |_| |  |  |/  /          
                |  |  |   |  __  | /  /__\  \  |    /   |      \           
                |  |  |   | |  | | |   __   |  |    \   |  |\   \          
                \     /   | |  | | |  |  |  |  | |\  \  |  | \   \       
[...]
                        -----------------------------------------
Total Dipole Moment    :      0.000000013       0.000704247      -0.000029475
                        -----------------------------------------
Magnitude (a.u.)       :      0.000704863
Magnitude (Debye)      :      0.001791620



--------------------
Rotational spectrum 
--------------------
 
Rotational constants in cm-1:             9.917150             9.814262             4.932719 
Rotational constants in MHz :        297308.680507        294224.165150        147879.190459 

Dipole components along the rotational axes: 
x,y,z [a.u.] :     0.000704     0.000000    -0.000028 
x,y,z [Debye]:     0.001790     0.000000    -0.000072 

 

-------------
DIPOLE MOMENT
-------------

Method             : TDA/CIS
Type of density    : Electron Density
Level              : Relaxed density
State              :   1
Multiplicity       :   1
Irrep              :   0
Energy             :     0.0000000000000000 Eh
Relativity type    : 
Basis              : AO
                                X                 Y                 Z
Electronic contribution:      0.000000067      -0.021433400       0.000087086
Nuclear contribution   :      0.000000010       0.001667746      -0.000039547
                        -----------------------------------------
Total Dipole Moment    :      0.000000077      -0.019765654       0.000047539
                        -----------------------------------------
Magnitude (a.u.)       :      0.019765711
Magnitude (Debye)      :      0.050240445



--------------------
Rotational spectrum 
--------------------
 
Rotational constants in cm-1:             9.917150             9.814262             4.932719 
Rotational constants in MHz :        297308.680507        294224.165150        147879.190459 

Dipole components along the rotational axes: 
x,y,z [a.u.] :    -0.019766     0.000000     0.000010 
x,y,z [Debye]:    -0.050240     0.000000     0.000026 

 

Dipole moment calculation done in   0.1 sec 

Maximum memory used throughout the entire PROP-calculation: 8.8 MB

----------------------------------------------------------------------------
                           ORCA NUMERICAL FREQUENCIES
----------------------------------------------------------------------------

Number of atoms                ... 4
Central differences            ... used
Number of displacements        ... 24
Numerical increment            ... 5.000e-03 bohr
IR-spectrum generation         ... on
Raman-spectrum generation      ... off
Surface Crossing Hessian       ... off

The output will be reduced. Please look at the following files:
SCF program output             ... >NH3_TDDFT-PBE0.lastscf
Integral program output        ... >NH3_TDDFT-PBE0.lastint
Gradient program output        ... >NH3_TDDFT-PBE0.lastgrad
Dipole moment program output   ... >NH3_TDDFT-PBE0.lastmom

	<< Calculating gradient on displaced geometry   1 (of  24) >>
	<< Calculating gradient on displaced geometry   2 (of  24) >>
	<< Calculating gradient on displaced geometry   3 (of  24) >>
	<< Calculating gradient on displaced geometry   4 (of  24) >>
	<< Calculating gradient on displaced geometry   5 (of  24) >>
	<< Calculating gradient on displaced geometry   6 (of  24) >>
	<< Calculating gradient on displaced geometry   7 (of  24) >>
	<< Calculating gradient on displaced geometry   8 (of  24) >>
	<< Calculating gradient on displaced geometry   9 (of  24) >>
	<< Calculating gradient on displaced geometry  10 (of  24) >>
	<< Calculating gradient on displaced geometry  11 (of  24) >>
	<< Calculating gradient on displaced geometry  12 (of  24) >>
	<< Calculating gradient on displaced geometry  13 (of  24) >>
	<< Calculating gradient on displaced geometry  14 (of  24) >>
	<< Calculating gradient on displaced geometry  15 (of  24) >>
	<< Calculating gradient on displaced geometry  16 (of  24) >>
	<< Calculating gradient on displaced geometry  17 (of  24) >>
	<< Calculating gradient on displaced geometry  18 (of  24) >>
	<< Calculating gradient on displaced geometry  19 (of  24) >>
	<< Calculating gradient on displaced geometry  20 (of  24) >>
	<< Calculating gradient on displaced geometry  21 (of  24) >>
	<< Calculating gradient on displaced geometry  22 (of  24) >>
	<< Calculating gradient on displaced geometry  23 (of  24) >>
	<< Calculating gradient on displaced geometry  24 (of  24) >>

-----------------------
VIBRATIONAL FREQUENCIES
-----------------------

Scaling factor for frequencies =  1.000000000  (already applied!)

     0:       0.00 cm**-1
     1:       0.00 cm**-1
     2:       0.00 cm**-1
     3:       0.00 cm**-1
     4:       0.00 cm**-1
     5:       0.00 cm**-1
     6:     531.68 cm**-1
     7:    1067.51 cm**-1
     8:    1096.29 cm**-1
     9:    2387.44 cm**-1
    10:    2492.42 cm**-1
    11:    2700.45 cm**-1


------------
NORMAL MODES
------------

These modes are the Cartesian displacements weighted by the diagonal matrix
M(i,i)=1/sqrt(m[i]) where m[i] is the mass of the displaced atom
Thus, these vectors are normalized but *not* orthogonal

                  0          1          2          3          4          5    
      0       0.000000   0.000000   0.000000   0.000000   0.000000   0.000000
      1       0.000000   0.000000   0.000000   0.000000   0.000000   0.000000
      2       0.000000   0.000000   0.000000   0.000000   0.000000   0.000000
      3       0.000000   0.000000   0.000000   0.000000   0.000000   0.000000
      4       0.000000   0.000000   0.000000   0.000000   0.000000   0.000000
      5       0.000000   0.000000   0.000000   0.000000   0.000000   0.000000
      6       0.000000   0.000000   0.000000   0.000000   0.000000   0.000000
      7       0.000000   0.000000   0.000000   0.000000   0.000000   0.000000
      8       0.000000   0.000000   0.000000   0.000000   0.000000   0.000000
      9       0.000000   0.000000   0.000000   0.000000   0.000000   0.000000
     10       0.000000   0.000000   0.000000   0.000000   0.000000   0.000000
     11       0.000000   0.000000   0.000000   0.000000   0.000000   0.000000
                  6          7          8          9         10         11    
      0       0.000004  -0.056420   0.000025  -0.000000  -0.105419  -0.000001
      1      -0.000223  -0.000025  -0.055782   0.104909  -0.000001   0.012184
      2      -0.123688  -0.000008   0.000073  -0.000206   0.000000  -0.000023
      3      -0.000057   0.773601  -0.000342   0.000001   0.186765   0.000001
      4       0.001220  -0.000122  -0.279351  -0.867549  -0.000004   0.455065
      5       0.572140   0.000037   0.000669   0.001686  -0.000000  -0.000854
      6       0.000143   0.005009  -0.425958  -0.176280   0.639068  -0.546729
      7       0.000975  -0.446032   0.527442  -0.295125   0.261930  -0.312184
      8       0.573303   0.000883  -0.000839   0.000586  -0.000481   0.000589
      9      -0.000143   0.005388   0.425950   0.176285   0.639054   0.546745
     10       0.000909   0.446496   0.527050  -0.295127  -0.261916  -0.312193
     11       0.573303  -0.000811  -0.000838   0.000586   0.000480   0.000589


-----------
IR SPECTRUM
-----------

 Mode   freq       eps      Int      T**2         TX        TY        TZ
       cm**-1   L/(mol*cm) km/mol    a.u.
----------------------------------------------------------------------------
  6:    531.68   0.072366  365.71  0.042475  (-0.000003  0.000383  0.206094)
  7:   1067.51   0.002889   14.60  0.000845  ( 0.029060  0.000012  0.000010)
  8:   1096.29   0.002798   14.14  0.000796  (-0.000013  0.028222 -0.000013)
  9:   2387.44   0.010600   53.57  0.001386  ( 0.000000 -0.037223  0.000076)
 10:   2492.42   0.009981   50.44  0.001250  ( 0.035350  0.000000 -0.000000)
 11:   2700.45   0.000116    0.59  0.000013  ( 0.000001 -0.003663  0.000008)

* The epsilon (eps) is given for a Dirac delta lineshape.
** The dipole moment derivative (T) already includes vibrational overlap.

The first frequency considered to be a vibration is 6
The total number of vibrations considered is 6


--------------------------
THERMOCHEMISTRY AT 298.15K
--------------------------

Temperature         ...   298.15 K
Pressure            ...     1.00 atm
Total Mass          ...    17.03 AMU
Quasi RRHO          ...     True
Cut-Off Frequency   ...     1.00 cm^-1

Throughout the following assumptions are being made:
  (1) The electronic state is orbitally nondegenerate
  (2) There are no thermally accessible electronically excited states
  (3) Hindered rotations indicated by low frequency modes are not
      treated as such but are treated as vibrations and this may
      cause some error
  (4) All equations used are the standard statistical mechanics
      equations for an ideal gas
  (5) All vibrations are strictly harmonic

freq.     531.68  E(vib)   ...       0.13 
freq.    1067.51  E(vib)   ...       0.02 
freq.    1096.29  E(vib)   ...       0.02 
freq.    2387.44  E(vib)   ...       0.00 
freq.    2492.42  E(vib)   ...       0.00 
freq.    2700.45  E(vib)   ...       0.00 

------------
INNER ENERGY
------------

The inner energy is: U= E(el) + E(ZPE) + E(vib) + E(rot) + E(trans)
    E(el)   - is the total energy from the electronic structure calculation
              = E(kin-el) + E(nuc-el) + E(el-el) + E(nuc-nuc)
    E(ZPE)  - the the zero temperature vibrational energy from the frequency calculation
    E(vib)  - the the finite temperature correction to E(ZPE) due to population
              of excited vibrational states
    E(rot)  - is the rotational thermal energy
    E(trans)- is the translational thermal energy

Summary of contributions to the inner energy U:
Electronic energy                ...    -56.28199737 Eh
Zero point energy                ...      0.02340997 Eh      14.69 kcal/mol
Thermal vibrational correction   ...      0.00025557 Eh       0.16 kcal/mol
Thermal rotational correction    ...      0.00141627 Eh       0.89 kcal/mol
Thermal translational correction ...      0.00141627 Eh       0.89 kcal/mol
-----------------------------------------------------------------------
Total thermal energy                    -56.25549929 Eh


Summary of corrections to the electronic energy:
(perhaps to be used in another calculation)
Total thermal correction                  0.00308811 Eh       1.94 kcal/mol
Non-thermal (ZPE) correction              0.02340997 Eh      14.69 kcal/mol
-----------------------------------------------------------------------
Total correction                          0.02649808 Eh      16.63 kcal/mol


--------
ENTHALPY
--------

The enthalpy is H = U + kB*T
                kB is Boltzmann's constant
Total thermal energy              ...    -56.25549929 Eh 
Thermal Enthalpy correction       ...      0.00094421 Eh       0.59 kcal/mol
-----------------------------------------------------------------------
Total Enthalpy                    ...    -56.25455508 Eh


Note: Rotational entropy computed according to Herzberg 
Infrared and Raman Spectra, Chapter V,1, Van Nostrand Reinhold, 1945 
Point Group:  C2v, Symmetry Number:   2  
Rotational constants in cm-1:     9.917150     9.814262     4.932719 

Vibrational entropy computed according to the QRRHO of S. Grimme
Chem.Eur.J. 2012 18 9955 using a reference frequency of 100.0 cm-1


-------
ENTROPY
-------

The entropy contributions are T*S = T*(S(el)+S(vib)+S(rot)+S(trans))
     S(el)   - electronic entropy
     S(vib)  - vibrational entropy
     S(rot)  - rotational entropy
     S(trans)- translational entropy
The entropies will be listed as multiplied by the temperature to get
units of energy

Electronic entropy                ...      0.00000000 Eh      0.00 kcal/mol
Vibrational entropy               ...      0.00034174 Eh      0.21 kcal/mol
Rotational entropy                ...      0.00594167 Eh      3.73 kcal/mol
Translational entropy             ...      0.01636425 Eh     10.27 kcal/mol
-----------------------------------------------------------------------
Final entropy term                ...      0.02264766 Eh     14.21 kcal/mol

In case the symmetry of your molecule has not been determined correctly
or in case you have a reason to use a different symmetry number we print 
out the resulting rotational entropy values for sn=1,12:

 non-linear molecules -----------------------------------
|  sn= 1 | S(rot)=       0.00659613 Eh      4.14 kcal/mol|
|  sn= 2 | S(rot)=       0.00594167 Eh      3.73 kcal/mol|
|  sn= 3 | S(rot)=       0.00555884 Eh      3.49 kcal/mol|
|  sn= 4 | S(rot)=       0.00528721 Eh      3.32 kcal/mol|
|  sn= 5 | S(rot)=       0.00507653 Eh      3.19 kcal/mol|
|  sn= 6 | S(rot)=       0.00490438 Eh      3.08 kcal/mol|
|  sn= 7 | S(rot)=       0.00475884 Eh      2.99 kcal/mol|
|  sn= 8 | S(rot)=       0.00463276 Eh      2.91 kcal/mol|
|  sn= 9 | S(rot)=       0.00452155 Eh      2.84 kcal/mol|
|  sn=10 | S(rot)=       0.00442207 Eh      2.77 kcal/mol|
|  sn=11 | S(rot)=       0.00433208 Eh      2.72 kcal/mol|
|  sn=12 | S(rot)=       0.00424993 Eh      2.67 kcal/mol|
 linear molecules ---------------------------------------
|  Dinfh | S(rot)=       0.00381900 Eh      2.40 kcal/mol|
|  Cinfv | S(rot)=       0.00447345 Eh      2.81 kcal/mol|
 --------------------------------------------------------


-------------------
GIBBS FREE ENERGY
-------------------

The Gibbs free energy is G = H - T*S

Total enthalpy                    ...    -56.25455508 Eh 
Total entropy correction          ...     -0.02264766 Eh    -14.21 kcal/mol
-----------------------------------------------------------------------
Final Gibbs free energy         ...    -56.27720274 Eh

For completeness - the Gibbs free energy minus the electronic energy
G-E(el)                           ...      0.00479463 Eh      3.01 kcal/mol



--------------------------------
SUGGESTED CITATIONS FOR THIS RUN
--------------------------------

Below you find a list of papers that are relevant to this ORCA run
We neither can nor want to force you to cite these papers, but we appreciate if you do
You receive ORCA, which is the product of decades of hard work by many enthusiastic individuals, for free
The only thing we kindly ask in return is that you cite our papers,
We deeply appreciate it, if you show your appreciation for ORCA by not just citing the generic ORCA reference.

Please note that relegating all ORCA citations to the supporting information does *not* help us.
SI sections are not indexed - citations you put there will not count into any citation statistics
But we need these citations in order to attract the funding resources that allow us to do what we are doing

Therefore, if you are a happy ORCA user, please consider citing a few of the papers listed below in the main body of your paper

In addition to the list printed below, the program has created the file NH3_TDDFT-PBE0.bibtex that contains the list in bibtex format
You can import this file easily into all common literature databanks and citation aid programs


List of essential papers. We consider these as the minimum necessary citations

  1. Neese,F.
     Software update: the ORCA program system, version 5.0
     WIRES Comput. Molec. Sci., 2022 12(1)e1606
     doi.org/10.1002/wcms.1606

List of papers to cite with high priority. The work reported in these papers was absolutely
necessary for this run to complete.
Our perspective: the developers of density functionals and basis sets usually get cited in chemistry papers
Good! But without the algorithms to do something with them, the functionals or basis sets would not do anything.
Hence, in our opinion, the algorithm design and method developments papers are equally worthy of getting cited

  1. Neese,F.; Olbrich,G.
     Efficient use of the resolution of the identity approximation in time-dependent density functional calculations with hybrid density functionals
     Chem. Phys. Lett., 2002 362 170-178
     doi.org/10.1016/s0009-2614(02)01053-9
  2. Neese,F.
     An improvement of the resolution of the identity approximation for the formation of the Coulomb matrix
     J. Comp. Chem., 2003 24(14)1740-1747
     doi.org/10.1002/jcc.10318
  3. Neese,F.; Wennmohs,F.; Hansen,A.; Becker,U.
     Efficient, approximate and parallel Hartree-Fock and hybrid DFT calculations. A 'chain-of-spheres' algorithm for the Hartree-Fock exchange
     Chem. Phys., 2009 356(1-3)98-109
     doi.org/10.1016/j.chemphys.2008.10.036
  4. Petrenko,T.; Kossmann,S.; Neese,F.
     Efficient time-dependent density functional theory approximations for hybrid density functionals: Analytical gradients and parallelization
     J. Chem. Phys., 2011 134 054116
     doi.org/10.1063/1.3533441
  5. Bykov,D.; Petrenko,T.; Izsak,R.; Kossmann,S.; Becker,U.; Valeev,E.; Neese,F.
     Efficient implementation of the analytic second derivatives of Hartree-Fock and hybrid DFT energies: a detailed analysis of different approximations
     Molec. Phys., 2015 113 1961-1977
     doi.org/10.1080/00268976.2015.1025114
  6. Helmich-Paris,B.; de Souza,B.; Neese,F.; Izsák,R.
     An improved chain of spheres for exchange algorithm
     J. Chem. Phys., 2021 155 104109
     doi.org/doi: 10.1063/5.0058766.
  7. Neese,F.
     The SHARK Integral Generation and Digestion System
     J. Comp. Chem., 2022  1-16
     doi.org/10.1002/jcc.26942

List of suggested additional citations. These are papers that are important in the 'surrounding' of 
of this run, or papers that preceded the highly important papers. If you like your results we are grateful for a citation.

  1. Izsak,R.; Neese,F.
     An overlap fitted chain of spheres exchange method
     J. Chem. Phys., 2011 135 144105
     doi.org/10.1063/1.3646921
  2. Izsak,R.; Hansen,A.; Neese,F.
     The resolution of identity and chain of spheres approximations for the LPNO-CCSD singles Fock term
     Molec. Phys., 2012 110 2413-2417
     doi.org/10.1080/00268976.2012.687466
  3. Neese,F.
     The ORCA program system
     WIRES Comput. Molec. Sci., 2012 2(1)73-78
     doi.org/10.1002/wcms.81
  4. Izsak,R.; Neese,F.; Klopper,W.
     Robust fitting techniques in the chain of spheres approximation to the Fock exchange: The role of the complementary space
     J. Chem. Phys., 2013 139 
     doi.org/10.1063/1.4819264
  5. Neese,F.
     Software update: the ORCA program system, version 4.0
     WIRES Comput. Molec. Sci., 2018 8(1)1-6
     doi.org/10.1002/wcms.1327
  6. Neese,F.; Wennmohs,F.; Becker,U.; Riplinger,C.
     The ORCA quantum chemistry program package
     J. Chem. Phys., 2020 152 Art. No. L224108
     doi.org/10.1063/5.0004608

List of optional additional citations

  1. Neese,F.
     Approximate second-order SCF convergence for spin unrestricted wavefunctions
     Chem. Phys. Lett., 2000 325(1-3)93-98
     doi.org/10.1016/s0009-2614(00)00662-x

Timings for individual modules:

Sum of individual times          ...      459.529 sec (=   7.659 min)
Startup calculation              ...        3.775 sec (=   0.063 min)   0.8 %
SCF iterations                   ...       33.261 sec (=   0.554 min)   7.2 %
Property integrals               ...        1.345 sec (=   0.022 min)   0.3 %
Property calculations            ...        0.123 sec (=   0.002 min)   0.0 %
CIS module                       ...      146.387 sec (=   2.440 min)  31.9 %
Geometry relaxation              ...        0.157 sec (=   0.003 min)   0.0 %
Numerical frequency calculation  ...      274.481 sec (=   4.575 min)  59.7 %
                             ****ORCA TERMINATED NORMALLY****
TOTAL RUN TIME: 0 days 0 hours 7 minutes 30 seconds 10 msec
