
                                 *****************
                                 * O   R   C   A *
                                 *****************

                                            #,                                       
                                            ###                                      
                                            ####                                     
                                            #####                                    
                                            ######                                   
                                           ########,                                 
                                     ,,################,,,,,                         
                               ,,#################################,,                 
                          ,,##########################################,,             
                       ,#########################################, ''#####,          
                    ,#############################################,,   '####,        
                  ,##################################################,,,,####,       
                ,###########''''           ''''###############################       
              ,#####''   ,,,,##########,,,,          '''####'''          '####       
            ,##' ,,,,###########################,,,                        '##       
           ' ,,###''''                  '''############,,,                           
         ,,##''                                '''############,,,,        ,,,,,,###''
      ,#''                                            '''#######################'''  
     '                                                          ''''####''''         
             ,#######,   #######,   ,#######,      ##                                
            ,#'     '#,  ##    ##  ,#'     '#,    #''#        ,####,   ,####,        
            ##       ##  ##   ,#'  ##            #'  '#       #'       #'  '#        
            ##       ##  #######   ##           ,######,      #####,   #    #        
            '#,     ,#'  ##    ##  '#,     ,#' ,#      #,     #,   #   #,  ,#        
             '#######'   ##     ##  '#######'  #'      '#     '####' # '####'        



                #########################################################
                #                        -***-                          #
                #          Department of theory and spectroscopy        #
                #                                                       #
                #                      Frank Neese                      #
                #                                                       #
                #     Directorship, Architecture, Infrastructure        #
                #                    SHARK, DRIVERS                     #
                #        Core code/Algorithms in most modules           #
                #                                                       #
                #        Max Planck Institute fuer Kohlenforschung      #
                #                Kaiser Wilhelm Platz 1                 #
                #                 D-45470 Muelheim/Ruhr                 #
                #                      Germany                          #
                #                                                       #
                #                  All rights reserved                  #
                #                        -***-                          #
                #########################################################


                         Program Version 6.0.1  -  RELEASE   -


 With contributions from (in alphabetic order):
[Max-Planck-Institut fuer Kohlenforschung]                               
  Daniel Aravena         : Magnetic Suceptibility                        
  Michael Atanasov       : Ab Initio Ligand Field Theory (pilot matlab implementation)
  Alexander A. Auer      : GIAO ZORA, VPT2 properties, NMR spectrum      
  Ute Becker             : All parallelization in ORCA, NUMFREQ, NUMCALC 
  Giovanni Bistoni       : ED, misc. LED, open-shell LED, HFLD           
  Martin Brehm           : Molecular dynamics                            
  Dmytro Bykov           : pre 5.0 version of the SCF Hessian            
  Marcos Casanova-Páez   : Triplet and SCS-CIS(D). UHF-(DLPNO)-IP/EA/STEOM-CCSD. UHF-CVS-IP/STEOM-CCSD   
  Vijay G. Chilkuri      : MRCI spin determinant printing, contributions to CSF-ICE 
  Pauline Colinet        : FMM embedding                                 
  Dipayan Datta          : RHF DLPNO-CCSD density                        
  Achintya Kumar Dutta   : EOM-CC, STEOM-CC                              
  Nicolas Foglia         : Exact transition moments, OPA infrastructure, MCD improvements    
  Dmitry Ganyushin       : Spin-Orbit,Spin-Spin,Magnetic field MRCI      
  Miquel Garcia-Rates    : C-PCM and meta-GGA Hessian, CCSD/C-PCM, Gaussian charge scheme 
  Tiago L. C. Gouveia    : GS-ROHF, GS-ROCIS                             
  Yang Guo               : DLPNO-NEVPT2, F12-NEVPT2, CIM, IAO-localization        
  Andreas Hansen         : Spin unrestricted coupled pair/coupled cluster methods 
  Ingolf Harden          : AUTO-CI MPn and infrastructure                
  Benjamin Helmich-Paris : MC-RPA, TRAH-(SCF,CASSCF), AVAS, COSX integrals, SCF dyn. polar. 
  Lee Huntington         : MR-EOM, pCC                                   
  Robert Izsak           : Overlap fitted RIJCOSX, COSX-SCS-MP3, EOM     
  Riya Kayal             : Wick's Theorem for AUTO-CI, AUTO-CI UHF-CCSDT 
  Emily Kempfer          : AUTO-CI, RHF CISDT and CCSDT                  
  Christian Kollmar      : KDIIS, OOCD, Brueckner-CCSD(T), CCSD density, CASPT2, CASPT2-K, improved NEVPT2 
  Axel Koslowski         : Symmetry handling                             
  Simone Kossmann        : meta-GGA functionals, TD-DFT gradient, OOMP2, (MP2 Hessian; deprecated post 5.0) 
  Lucas Lang             : DCDCAS                                        
  Marvin Lechner         : AUTO-CI (C++ implementation), FIC-MRCC        
  Spencer Leger          : CASSCF response                               
  Dagmar Lenk            : GEPOL surface, SMD, ORCA-2-JSON               
  Dimitrios Liakos       : Extrapolation schemes; Compound Job, initial MDCI parallelization 
  Dimitrios Manganas     : Further ROCIS development; embedding schemes. LFT, Crystal Embedding 
  Dimitrios Pantazis     : SARC Basis sets                               
  Anastasios Papadopoulos: AUTO-CI, single reference methods and gradients 
  Taras Petrenko         : pre 6.0 DFT Hessian and TD-DFT gradient, (ASA, deprecated), ECA, 1-Electron XAS/XES, NRVS 
  Peter Pinski           : DLPNO-MP2, DLPNO-MP2 Gradient                 
  Christoph Reimann      : Effective Core Potentials                     
  Marius Retegan         : Local ZFS, SOC                                
  Christoph Riplinger    : Optimizer, TS searches, QM/MM, DLPNO-CCSD(T), (RO)-DLPNO pert. Triples 
  Michael Roemelt        : Original ROCIS implementation                 
  Masaaki Saitow         : Open-shell DLPNO-CCSD energy and density      
  Barbara Sandhoefer     : DKH picture change effects                    
  Kantharuban Sivalingam : CASSCF convergence/infrastructure, NEVPT2 and variants, FIC-MRCI 
  Bernardo de Souza      : ESD, SOC TD-DFT                               
  Georgi L. Stoychev     : AutoAux, RI-MP2 NMR, DLPNO-MP2 response, X2C  
  Van Anh Tran           : RI-MP2 g-tensors                              
  Willem Van den Heuvel  : Paramagnetic NMR                              
  Zikuan Wang            : NOTCH, Electric field optimization            
  Frank Wennmohs         : Technical directorship and infrastructure     
  Hang Xu                : AUTO-CI-Response properties                   
                                                                         
[FACCTs GmbH]                                                            
  Markus Bursch, Miquel Garcia-Rates, Christoph Riplinger, Bernardo de Souza, Georgi L. Stoychev 
                                                                 
  APM, Basis sets (HGBS, AHGBS, def-TZVP (Ac-Lr), def2-XVPD (La-Lu)), CI-OPT, improved COSX, DLPNO-Multilevel,           
  DOCKER, DRACO, updates on ESD, GOAT, IRC, LR-CPCM, MBIS, meta-GGA TD-DFT gradient, ML-optimized integration grids, 
  MM, NACMEs, nearIR, NEB, NEB-TS, NL-DFT gradient (VV10), 2- and 3-layer-ONIOM, interface openCOSMO-RS, QMMM,   
  Crystal-QMMM, SF, symmetry and pop. for TD-DFT, r2SCAN hybrids, SOLVATOR                                   
                                                                         
[Other institutions]                                                     
  V. Asgeirsson          : NEB                                           
  Christoph Bannwarth    : sTDA-DFT, sTD-DFT, PBEh-3c, B97-3c, D3        
  Sebastian Ehlert       : rSCAN, r2SCAN, r2SCAN-3c, D4, dhf basis sets  
  Marvin Friede          : D4 for Fr, Ra, Ac-Lr                          
  Lars Goerigk           : TD-DFT with DH, B97 family of functionals     
  Stefan Grimme          : VdW corrections, initial TS optimization, DFT functionals, gCP, sTDA/sTD-DF 
  Waldemar Hujo          : DFT-NL                                        
  H. Jonsson             : NEB                                           
  Holger Kruse           : gCP                                           
  Marcel Mueller         : wB97X-3c, vDZP basis set                      
  Hagen Neugebauer       : wr2SCAN                                       
  Tobias Risthaus        : range-separated hybrid DFT                    
  Lukas Wittmann         : regularized MP2, r2SCAN double-hybrids, wr2SCAN        
                                                                         
We gratefully acknowledge several colleagues who have allowed us to      
interface, adapt or use parts of their codes:                            
  Ed Valeev, F. Pavosevic, A. Kumar             : LibInt (2-el integral package), F12 methods 
  Garnet Chan, S. Sharma, J. Yang, R. Olivares  : DMRG                   
  Ulf Ekstrom                                   : XCFun DFT Library      
  Mihaly Kallay                                 : mrcc  (arbitrary order and MRCC methods)
  Frank Weinhold                                : gennbo (NPA and NBO analysis)           
  Simon Mueller                                 : openCOSMO-RS                            
  Christopher J. Cramer and Donald G. Truhlar   : smd solvation model                     
  S Lehtola, MJT Oliveira, MAL Marques          : LibXC Library                           
  Liviu Ungur et al                             : ANISO software                          


 Your calculation uses the libint2 library for the computation of 2-el integrals
 For citations please refer to: http://libint.valeyev.net

 Your ORCA version has been built with support for libXC version: 6.2.2
 For citations please refer to: https://libxc.gitlab.io

 This ORCA versions uses:
   CBLAS   interface :  Fast vector & matrix operations
   LAPACKE interface :  Fast linear algebra routines
   SCALAPACK package :  Parallel linear algebra routines
   Shared memory     :  Shared parallel matrices
   BLAS/LAPACK       :  OpenBLAS 0.3.27  USE64BITINT DYNAMIC_ARCH NO_AFFINITY Zen SINGLE_THREADED
        Core in use  :  Zen
   Copyright (c) 2011-2014, The OpenBLAS Project


NOTE: MaxCore=4000 MB was set to SCF,MP2,MDCI,CIPSI,MRCI and CIS
      => If you want to overwrite this, your respective input block should be placed after the MaxCore statement
Warning: RI is on but no J-basis has been assigned. Assigning Def2/J (nothing to worry about!)
================================================================================

----- Orbital basis set information -----
Your calculation utilizes the basis: def2-TZVPP
   F. Weigend and R. Ahlrichs, Phys. Chem. Chem. Phys. 7, 3297 (2005).

----- AuxJ basis set information -----
Your calculation utilizes the auxiliary basis: def2/J
   F. Weigend, Phys. Chem. Chem. Phys. 8, 1057 (2006).

================================================================================
                                        WARNINGS
                       Please study these warnings very carefully!
================================================================================


WARNING: Geometry Optimization
  ===> : Switching off AutoStart
         For restart on a previous wavefunction, please use MOREAD

================================================================================
                                       INPUT FILE
================================================================================
NAME = C6H6_Opt_Geom-B3LYP.inp
|  1> ! B3LYP def2-TZVPP Opt TightOpt VeryTightSCF
|  2> 
|  3> %scf
|  4>    MaxIter 400          # Máximo de iteraciones permitidas para el SCF
|  5> end
|  6> 
|  7> %geom
|  8>    TolRMSD 1.0e-5
|  9>    TolMAXD 1.0e-4
| 10>    TolRMSG 1.0e-5
| 11>    TolMAXG 1.0e-4
| 12> end
| 13> 
| 14> %pal
| 15>    nprocs 30
| 16> end
| 17> 
| 18> %MaxCore 4000            # Memoria máxima por núcleo (en MB)
| 19> 
| 20> * xyz 0 1
| 21> C      -1.19880240    0.69212860    0.00000000
| 22> C      -1.19880240   -0.69212860    0.00000000
| 23> C       0.00000000   -1.38425390    0.00000000
| 24> C       1.19880240   -0.69212860    0.00000000
| 25> C       1.19880240    0.69212860    0.00000000
| 26> C       0.00000000    1.38425390    0.00000000
| 27> H      -2.13315490   -1.23157780    0.00000000
| 28> H       0.00000000   -2.46315180    0.00000000
| 29> H       2.13315490   -1.23157780    0.00000000
| 30> H       2.13315490    1.23157780    0.00000000
| 31> H       0.00000000    2.46315180    0.00000000
| 32> H      -2.13315490    1.23157780    0.00000000
| 33> **                         ****END OF INPUT****
================================================================================

                       *****************************
                       * Geometry Optimization Run *
                       *****************************

Geometry optimization settings:
Update method            Update   .... BFGS
Choice of coordinates    CoordSys .... (2022) Redundant Internals
Initial Hessian          InHess   .... Almloef's Model
Max. no of cycles        MaxIter  .... 50

Convergence Tolerances:
Energy Change            TolE     ....  1.0000e-06 Eh
Max. Gradient            TolMAXG  ....  1.0000e-04 Eh/bohr
RMS Gradient             TolRMSG  ....  1.0000e-05 Eh/bohr
Max. Displacement        TolMAXD  ....  1.0000e-04 bohr
RMS Displacement         TolRMSD  ....  1.0000e-05 bohr
Strict Convergence                .... False

------------------------------------------------------------------------------
                        ORCA OPTIMIZATION COORDINATE SETUP
------------------------------------------------------------------------------

The optimization will be done in redundant internal coordinates (2022)
Making redundant internal coordinates   ...  (2022 redundants) done
Evaluating the initial hessian          ...  (Almloef) done
Evaluating the coordinates              ...  done
Calculating the B-matrix                .... done
Calculating the G-matrix                .... done
Diagonalizing the G-matrix              .... done
The first mode is                       ....   24
The number of degrees of freedom        ....   30

    -----------------------------------------------------------------
                    Redundant Internal Coordinates


    -----------------------------------------------------------------
         Definition                    Initial Value    Approx d2E/dq
    -----------------------------------------------------------------
      1. B(C   1,C   0)                  1.3843         0.638118   
      2. B(C   2,C   1)                  1.3843         0.638121   
      3. B(C   3,C   2)                  1.3843         0.638121   
      4. B(C   4,C   3)                  1.3843         0.638118   
      5. B(C   5,C   4)                  1.3843         0.638121   
      6. B(C   5,C   0)                  1.3843         0.638121   
      7. B(H   6,C   1)                  1.0789         0.375091   
      8. B(H   7,C   2)                  1.0789         0.375090   
      9. B(H   8,C   3)                  1.0789         0.375091   
     10. B(H   9,C   4)                  1.0789         0.375091   
     11. B(H  10,C   5)                  1.0789         0.375090   
     12. B(H  11,C   0)                  1.0789         0.375091   
     13. A(C   1,C   0,H  11)          120.0000         0.357099   
     14. A(C   5,C   0,H  11)          120.0001         0.357099   
     15. A(C   1,C   0,C   5)          119.9999         0.438595   
     16. A(C   0,C   1,C   2)          119.9999         0.438595   
     17. A(C   2,C   1,H   6)          120.0001         0.357099   
     18. A(C   0,C   1,H   6)          120.0000         0.357099   
     19. A(C   3,C   2,H   7)          119.9999         0.357099   
     20. A(C   1,C   2,H   7)          119.9999         0.357099   
     21. A(C   1,C   2,C   3)          120.0003         0.438595   
     22. A(C   2,C   3,C   4)          119.9999         0.438595   
     23. A(C   4,C   3,H   8)          120.0000         0.357099   
     24. A(C   2,C   3,H   8)          120.0001         0.357099   
     25. A(C   5,C   4,H   9)          120.0001         0.357099   
     26. A(C   3,C   4,H   9)          120.0000         0.357099   
     27. A(C   3,C   4,C   5)          119.9999         0.438595   
     28. A(C   0,C   5,H  10)          119.9999         0.357099   
     29. A(C   0,C   5,C   4)          120.0003         0.438595   
     30. A(C   4,C   5,H  10)          119.9999         0.357099   
     31. D(H   6,C   1,C   0,C   5)    180.0000         0.028280   
     32. D(H   6,C   1,C   0,H  11)      0.0000         0.028280   
     33. D(C   2,C   1,C   0,H  11)    180.0000         0.028280   
     34. D(C   2,C   1,C   0,C   5)      0.0000         0.028280   
     35. D(H   7,C   2,C   1,C   0)    180.0000         0.028280   
     36. D(C   3,C   2,C   1,C   0)      0.0000         0.028280   
     37. D(C   3,C   2,C   1,H   6)    180.0000         0.028280   
     38. D(H   7,C   2,C   1,H   6)      0.0000         0.028280   
     39. D(H   8,C   3,C   2,H   7)      0.0000         0.028280   
     40. D(H   8,C   3,C   2,C   1)    180.0000         0.028280   
     41. D(C   4,C   3,C   2,H   7)    180.0000         0.028280   
     42. D(C   4,C   3,C   2,C   1)      0.0000         0.028280   
     43. D(H   9,C   4,C   3,C   2)    180.0000         0.028280   
     44. D(C   5,C   4,C   3,H   8)    180.0000         0.028280   
     45. D(C   5,C   4,C   3,C   2)      0.0000         0.028280   
     46. D(H   9,C   4,C   3,H   8)      0.0000         0.028280   
     47. D(H  10,C   5,C   4,H   9)      0.0000         0.028280   
     48. D(C   0,C   5,C   4,H   9)    180.0000         0.028280   
     49. D(C   0,C   5,C   4,C   3)      0.0000         0.028280   
     50. D(H  10,C   5,C   0,H  11)      0.0000         0.028280   
     51. D(H  10,C   5,C   0,C   1)    180.0000         0.028280   
     52. D(H  10,C   5,C   4,C   3)    180.0000         0.028280   
     53. D(C   4,C   5,C   0,H  11)    180.0000         0.028280   
     54. D(C   4,C   5,C   0,C   1)      0.0000         0.028280   
    -----------------------------------------------------------------

Number of atoms                         .... 12
Number of degrees of freedom            .... 54


         *************************************************************
         *                GEOMETRY OPTIMIZATION CYCLE   1            *
         *************************************************************
---------------------------------
CARTESIAN COORDINATES (ANGSTROEM)
---------------------------------
  C     -1.198802    0.692129    0.000000
  C     -1.198802   -0.692129    0.000000
  C      0.000000   -1.384254    0.000000
  C      1.198802   -0.692129    0.000000
  C      1.198802    0.692129    0.000000
  C      0.000000    1.384254    0.000000
  H     -2.133155   -1.231578    0.000000
  H      0.000000   -2.463152    0.000000
  H      2.133155   -1.231578    0.000000
  H      2.133155    1.231578    0.000000
  H      0.000000    2.463152    0.000000
  H     -2.133155    1.231578    0.000000

----------------------------
CARTESIAN COORDINATES (A.U.)
----------------------------
  NO LB      ZA    FRAG     MASS         X           Y           Z
   0 C     6.0000    0    12.011   -2.265408    1.307934    0.000000
   1 C     6.0000    0    12.011   -2.265408   -1.307934    0.000000
   2 C     6.0000    0    12.011    0.000000   -2.615861    0.000000
   3 C     6.0000    0    12.011    2.265408   -1.307934    0.000000
   4 C     6.0000    0    12.011    2.265408    1.307934    0.000000
   5 C     6.0000    0    12.011    0.000000    2.615861    0.000000
   6 H     1.0000    0     1.008   -4.031079   -2.327345    0.000000
   7 H     1.0000    0     1.008    0.000000   -4.654682    0.000000
   8 H     1.0000    0     1.008    4.031079   -2.327345    0.000000
   9 H     1.0000    0     1.008    4.031079    2.327345    0.000000
  10 H     1.0000    0     1.008    0.000000    4.654682    0.000000
  11 H     1.0000    0     1.008   -4.031079    2.327345    0.000000

--------------------------------
INTERNAL COORDINATES (ANGSTROEM)
--------------------------------
 C      0   0   0     0.000000000000     0.00000000     0.00000000
 C      1   0   0     1.384257200000     0.00000000     0.00000000
 C      2   1   0     1.384255982521   119.99987137     0.00000000
 C      3   2   1     1.384255982521   120.00025725     0.00000000
 C      4   3   2     1.384257200000   119.99987137     0.00000000
 C      1   2   3     1.384255982521   119.99987137     0.00000000
 H      2   1   3     1.078897601090   120.00002450   180.00000000
 H      3   2   1     1.078897900000   119.99987137   180.00000085
 H      4   3   2     1.078897601090   120.00010413   180.00000000
 H      5   4   3     1.078897601090   120.00002450   180.00000000
 H      6   1   2     1.078897900000   119.99987137   180.00000085
 H      1   2   3     1.078897601090   120.00002450   180.00000000

---------------------------
INTERNAL COORDINATES (A.U.)
---------------------------
 C      0   0   0     0.000000000000     0.00000000     0.00000000
 C      1   0   0     2.615867006909     0.00000000     0.00000000
 C      2   1   0     2.615864706207   119.99987137     0.00000000
 C      3   2   1     2.615864706207   120.00025725     0.00000000
 C      4   3   2     2.615867006909   119.99987137     0.00000000
 C      1   2   3     2.615864706207   119.99987137     0.00000000
 H      2   1   3     2.038820992604   120.00002450   180.00000000
 H      3   2   1     2.038821557463   119.99987137   180.00000085
 H      4   3   2     2.038820992604   120.00010413   180.00000000
 H      5   4   3     2.038820992604   120.00002450   180.00000000
 H      6   1   2     2.038821557463   119.99987137   180.00000085
 H      1   2   3     2.038820992604   120.00002450   180.00000000

---------------------
BASIS SET INFORMATION
---------------------
There are 2 groups of distinct atoms

 Group   1 Type C   : 11s6p2d1f contracted to 5s3p2d1f pattern {62111/411/11/1}
 Group   2 Type H   : 5s2p1d contracted to 3s2p1d pattern {311/11/1}

Atom   0C    basis set group =>   1
Atom   1C    basis set group =>   1
Atom   2C    basis set group =>   1
Atom   3C    basis set group =>   1
Atom   4C    basis set group =>   1
Atom   5C    basis set group =>   1
Atom   6H    basis set group =>   2
Atom   7H    basis set group =>   2
Atom   8H    basis set group =>   2
Atom   9H    basis set group =>   2
Atom  10H    basis set group =>   2
Atom  11H    basis set group =>   2
---------------------------------
AUXILIARY/J BASIS SET INFORMATION
---------------------------------
There are 2 groups of distinct atoms

 Group   1 Type C   : 12s5p4d2f1g contracted to 6s4p3d1f1g pattern {711111/2111/211/2/1}
 Group   2 Type H   : 5s2p1d contracted to 3s1p1d pattern {311/2/1}

Atom   0C    basis set group =>   1
Atom   1C    basis set group =>   1
Atom   2C    basis set group =>   1
Atom   3C    basis set group =>   1
Atom   4C    basis set group =>   1
Atom   5C    basis set group =>   1
Atom   6H    basis set group =>   2
Atom   7H    basis set group =>   2
Atom   8H    basis set group =>   2
Atom   9H    basis set group =>   2
Atom  10H    basis set group =>   2
Atom  11H    basis set group =>   2


           ************************************************************
           *        Program running with 30 parallel MPI-processes    *
           *              working on a common directory               *
           ************************************************************
------------------------------------------------------------------------------
                             ORCA STARTUP CALCULATIONS
                           -- RI-GTO INTEGRALS CHOSEN --
------------------------------------------------------------------------------
------------------------------------------------------------------------------
                   ___                                                        
                  /   \      - P O W E R E D   B Y -                         
                 /     \                                                     
                 |  |  |   _    _      __       _____    __    __             
                 |  |  |  | |  | |    /  \     |  _  \  |  |  /  |          
                  \  \/   | |  | |   /    \    | | | |  |  | /  /          
                 / \  \   | |__| |  /  /\  \   | |_| |  |  |/  /          
                |  |  |   |  __  | /  /__\  \  |    /   |      \           
                |  |  |   | |  | | |   __   |  |    \   |  |\   \          
                \     /   | |  | | |  |  |  |  | |\  \  |  | \   \       
                 \___/    |_|  |_| |__|  |__|  |_| \__\ |__|  \__/        
                                                                              
                      - O R C A' S   B I G   F R I E N D -                    
                                      &                                       
                       - I N T E G R A L  F E E D E R -                       
                                                                              
 v1 FN, 2020, v2 2021, v3 2022-2024                                           
------------------------------------------------------------------------------


----------------------
SHARK INTEGRAL PACKAGE
----------------------

Number of atoms                             ...     12
Number of basis functions                   ...    270
Number of shells                            ...    102
Maximum angular momentum                    ...      3
Integral batch strategy                     ... SHARK/LIBINT Hybrid
RI-J (if used) integral strategy            ... SPLIT-RIJ (Revised 2003 algorithm where possible)
Printlevel                                  ...      1
Contraction scheme used                     ... SEGMENTED contraction
Prescreening option                         ... SCHWARTZ
   Thresh                                   ... 1.000e-12
   Tcut                                     ... 1.000e-14
   Tpresel                                  ... 1.000e-14 
Coulomb Range Separation                    ... NOT USED
Exchange Range Separation                   ... NOT USED
Multipole approximations                    ... NOT USED
Finite Nucleus Model                        ... NOT USED
CABS basis                                  ... NOT available
Auxiliary Coulomb fitting basis             ... AVAILABLE
   # of basis functions in Aux-J            ...    360
   # of shells in Aux-J                     ...    120
   Maximum angular momentum in Aux-J        ...      4
Auxiliary J/K fitting basis                 ... NOT available
Auxiliary Correlation fitting basis         ... NOT available
Auxiliary 'external' fitting basis          ... NOT available

Checking pre-screening integrals            ... done (  0.0 sec) Dimension = 102
Check shell pair data                       ... done (  0.0 sec)
Shell pair information
Shell pair cut-off parameter TPreSel        ...   1.0e-14
Total number of shell pairs                 ...      5253
Shell pairs after pre-screening             ...      5046
Total number of primitive shell pairs       ...     14346
Primitive shell pairs kept                  ...     11325
          la=0 lb=0:   1095 shell pairs
          la=1 lb=0:   1386 shell pairs
          la=1 lb=1:    456 shell pairs
          la=2 lb=0:    822 shell pairs
          la=2 lb=1:    522 shell pairs
          la=2 lb=2:    168 shell pairs
          la=3 lb=0:    288 shell pairs
          la=3 lb=1:    180 shell pairs
          la=3 lb=2:    108 shell pairs
          la=3 lb=3:     21 shell pairs

Calculating one electron integrals          ... done (  0.0 sec)
Calculating RI/J V-Matrix + Cholesky decomp.... done (  0.0 sec)
Calculating Nuclear repulsion               ... done (  0.0 sec) ENN=    204.957759944352 Eh

Diagonalization of the overlap matrix:
Smallest eigenvalue                        ... 9.606e-06
Time for diagonalization                   ...    0.009 sec
Threshold for overlap eigenvalues          ... 1.000e-07
Number of eigenvalues below threshold      ... 0
Time for construction of square roots      ...    0.007 sec
Total time needed                          ...    0.019 sec

-------------------
DFT GRID GENERATION
-------------------

General Integration Accuracy     IntAcc      ... 4.388
Radial Grid Type                 RadialGrid  ... OptM3 with GC (2021)
Angular Grid (max. ang.)         AngularGrid ... 4 (Lebedev-302)
Angular grid pruning method      GridPruning ... 4 (adaptive)
Weight generation scheme         WeightScheme... mBecke (2022)
Basis function cutoff            BFCut       ... 1.0000e-12
Integration weight cutoff        WCut        ... 1.0000e-14
Partially contracted basis set               ... off
Rotationally invariant grid construction     ... off
Angular grids for H and He will be reduced by one unit

Total number of grid points                  ...    55482
Total number of batches                      ...      874
Average number of points per batch           ...       63
Average number of grid points per atom       ...     4624

--------------------
COSX GRID GENERATION
--------------------

GRIDX 1
-------
General Integration Accuracy     IntAcc      ... 3.816
Radial Grid Type                 RadialGrid  ... OptM3 with GC (2021)
Angular Grid (max. ang.)         AngularGrid ... 1 (Lebedev-50)
Angular grid pruning method      GridPruning ... 4 (adaptive)
Weight generation scheme         WeightScheme... mBecke (2022)
Basis function cutoff            BFCut       ... 1.0000e-12
Integration weight cutoff        WCut        ... 1.0000e-14
Partially contracted basis set               ... on
Rotationally invariant grid construction     ... off
Angular grids for H and He will be reduced by one unit

Total number of grid points                  ...     7120
Total number of batches                      ...       60
Average number of points per batch           ...      118
Average number of grid points per atom       ...      593
UseSFitting                                  ... on

GRIDX 2
-------
General Integration Accuracy     IntAcc      ... 4.020
Radial Grid Type                 RadialGrid  ... OptM3 with GC (2021)
Angular Grid (max. ang.)         AngularGrid ... 2 (Lebedev-110)
Angular grid pruning method      GridPruning ... 4 (adaptive)
Weight generation scheme         WeightScheme... mBecke (2022)
Basis function cutoff            BFCut       ... 1.0000e-12
Integration weight cutoff        WCut        ... 1.0000e-14
Partially contracted basis set               ... on
Rotationally invariant grid construction     ... off
Angular grids for H and He will be reduced by one unit

Total number of grid points                  ...    15456
Total number of batches                      ...      126
Average number of points per batch           ...      122
Average number of grid points per atom       ...     1288
UseSFitting                                  ... on

GRIDX 3
-------
General Integration Accuracy     IntAcc      ... 4.338
Radial Grid Type                 RadialGrid  ... OptM3 with GC (2021)
Angular Grid (max. ang.)         AngularGrid ... 3 (Lebedev-194)
Angular grid pruning method      GridPruning ... 4 (adaptive)
Weight generation scheme         WeightScheme... mBecke (2022)
Basis function cutoff            BFCut       ... 1.0000e-12
Integration weight cutoff        WCut        ... 1.0000e-14
Partially contracted basis set               ... on
Rotationally invariant grid construction     ... off
Angular grids for H and He will be reduced by one unit

Total number of grid points                  ...    34000
Total number of batches                      ...      272
Average number of points per batch           ...      125
Average number of grid points per atom       ...     2833
UseSFitting                                  ... on
Initializing property integral containers    ... done (  0.0 sec)

SHARK setup successfully completed in   0.9 seconds

Maximum memory used throughout the entire STARTUP-calculation: 19.2 MB


           ************************************************************
           *        Program running with 30 parallel MPI-processes    *
           *              working on a common directory               *
           ************************************************************
-------------------------------------------------------------------------------
                                 ORCA GUESS
                   Start orbitals & Density for SCF / CASSCF
-------------------------------------------------------------------------------

------------
SCF SETTINGS
------------
Hamiltonian:
 Density Functional     Method          .... DFT(GTOs)
 Exchange Functional    Exchange        .... B88
   X-Alpha parameter    XAlpha          ....  0.666667
   Becke's b parameter  XBeta           ....  0.004200
 Correlation Functional Correlation     .... LYP
 LDA part of GGA corr.  LDAOpt          .... VWN-5
 Gradients option       PostSCFGGA      .... off
 Hybrid DFT is turned on
   Fraction HF Exchange ScalHFX         ....  0.200000
   Scaling of DF-GGA-X  ScalDFX         ....  0.720000
   Scaling of DF-GGA-C  ScalDFC         ....  0.810000
   Scaling of DF-LDA-C  ScalLDAC        ....  1.000000
   Perturbative correction              ....  0.000000
   NL short-range parameter             ....  4.800000
 RI-approximation to the Coulomb term is turned on
   Number of AuxJ basis functions       .... 360
   RIJ-COSX (HFX calculated with COS-X)).... on


General Settings:
 Integral files         IntName         .... C6H6_Opt_Geom-B3LYP
 Hartree-Fock type      HFTyp           .... RHF
 Total Charge           Charge          ....    0
 Multiplicity           Mult            ....    1
 Number of Electrons    NEL             ....   42
 Basis Dimension        Dim             ....  270
 Nuclear Repulsion      ENuc            ....    204.9577599444 Eh

Convergence Acceleration:
 AO-DIIS                CNVDIIS         .... on
   Start iteration      DIISMaxIt       ....    12
   Startup error        DIISStart       ....  0.200000
   # of expansion vecs  DIISMaxEq       ....     5
   Bias factor          DIISBfac        ....   1.050
   Max. coefficient     DIISMaxC        ....  10.000
 MO-DIIS                CNVKDIIS        .... off
 Trust-Rad. Augm. Hess. CNVTRAH         .... auto
   Auto Start mean grad. ratio tolernc. ....  1.125000
   Auto Start start iteration           ....    50
   Auto Start num. interpolation iter.  ....    10
   Max. Number of Micro iterations      ....    24
   Max. Number of Macro iterations      .... Maxiter - #DIIS iter
   Number of Davidson start vectors     ....     2
   Converg. threshold    (grad. norm)   ....   2.000e-06
   Grad. Scal. Fac. for Micro threshold ....   0.100
   Minimum threshold for Micro iter.    ....   1.000e-02
   NR start threshold (gradient norm)   ....   1.000e-04
   Initial trust radius                 ....   0.400
   Minimum AH scaling param. (alpha)    ....   1.000
   Maximum AH scaling param. (alpha)    .... 1000.000
   Quad. conv. algorithm                .... NR
   White noise on init. David. guess    .... on
   Maximum white noise                  ....   0.010
   Pseudo random numbers                .... off
   Inactive MOs                         .... canonical
   Orbital update algorithm             .... Taylor
   Preconditioner                       .... Diag
   Full preconditioner red. dimension   ....   250
 SOSCF                  CNVSOSCF        .... on
   Start iteration      SOSCFMaxIt      ....   150
   Startup grad/error   SOSCFStart      ....  0.003300
   Hessian update       SOSCFHessUp     .... L-BFGS
 Level Shifting         CNVShift        .... on
   Level shift para.    LevelShift      ....    0.2500
   Turn off err/grad.   ShiftErr        ....    0.0010
 Zerner damping         CNVZerner       .... off
 Static damping         CNVDamp         .... on
   Fraction old density DampFac         ....    0.7000
   Max. Damping (<1)    DampMax         ....    0.9800
   Min. Damping (>=0)   DampMin         ....    0.0000
   Turn off err/grad.   DampErr         ....    0.1000

SCF Procedure:
 Maximum # iterations   MaxIter         ....   400
 SCF integral mode      SCFMode         .... Direct
   Integral package                     .... SHARK and LIBINT hybrid scheme
 Reset frequency        DirectResetFreq ....    20
 Integral Threshold     Thresh          ....  1.000e-12 Eh
 Primitive CutOff       TCut            ....  1.000e-14 Eh

Convergence Tolerance:
 Convergence Check Mode ConvCheckMode   .... Total+1el-Energy
 Convergence forced     ConvForced      .... 0
 Energy Change          TolE            ....  1.000e-09 Eh
 1-El. energy change                    ....  1.000e-06 Eh
 Orbital Gradient       TolG            ....  2.000e-06
 Orbital Rotation angle TolX            ....  2.000e-06
 DIIS Error             TolErr          ....  1.000e-08

------------------------------
INITIAL GUESS: MODEL POTENTIAL
------------------------------
Loading Hartree-Fock densities                     ... done
Calculating cut-offs                               ... done
Initializing the effective Hamiltonian             ... done
Setting up the integral package (SHARK)            ... done
Starting the Coulomb interaction                   ... done (   0.0 sec)
Making the grid                                    ... done (   0.1 sec)
Mapping shells                                     ... done
Starting the XC term evaluation                    ... done (   0.0 sec)
  promolecular density results
     # of electrons  =     41.997045641
     EX              =    -32.634695519
     EC              =     -1.379563934
     EX+EC           =    -34.014259453
Transforming the Hamiltonian                       ... done (   0.0 sec)
Diagonalizing the Hamiltonian                      ... done (   0.0 sec)
Back transforming the eigenvectors                 ... done (   0.0 sec)
Now organizing SCF variables                       ... done
                      ------------------
                      INITIAL GUESS DONE (   0.2 sec)
                      ------------------
             **** ENERGY FILE WAS UPDATED (C6H6_Opt_Geom-B3LYP.en.tmp) ****
Finished Guess after   0.7 sec
Maximum memory used throughout the entire GUESS-calculation: 14.2 MB


           ************************************************************
           *        Program running with 30 parallel MPI-processes    *
           *              working on a common directory               *
           ************************************************************

-------------------------------------------------------------------------------------------
                                      ORCA LEAN-SCF
                              memory conserving SCF solver
-------------------------------------------------------------------------------------------

----------------------------------------D-I-I-S--------------------------------------------
Iteration    Energy (Eh)           Delta-E    RMSDP     MaxDP     DIISErr   Damp  Time(sec)
-------------------------------------------------------------------------------------------
               ***  Starting incremental Fock matrix formation  ***
    1    -232.0100801277277469     0.00e+00  1.25e-03  2.95e-02  1.56e-01  0.700   0.8
    2    -232.0897232799680978    -7.96e-02  8.87e-04  1.85e-02  8.16e-02  0.700   0.6
                               ***Turning on AO-DIIS***
    3    -232.1235734351266728    -3.39e-02  3.69e-04  7.13e-03  3.26e-02  0.700   0.6
    4    -232.1431773685407620    -1.96e-02  6.13e-04  1.26e-02  1.79e-02  0.000   0.6
    5    -232.1855150500629179    -4.23e-02  1.25e-04  2.78e-03  4.65e-03  0.000   0.6
                              *** Initializing SOSCF ***
---------------------------------------S-O-S-C-F--------------------------------------
Iteration    Energy (Eh)           Delta-E    RMSDP     MaxDP     MaxGrad    Time(sec)
--------------------------------------------------------------------------------------
    6    -232.1857345883729522    -2.20e-04  6.30e-05  1.34e-03  8.26e-04     0.6
               *** Restarting incremental Fock matrix formation ***
    7    -232.1857100588490539     2.45e-05  5.90e-05  9.68e-04  1.51e-04     0.7
    8    -232.1857106362772356    -5.77e-07  1.13e-05  1.79e-04  5.89e-05     0.7
    9    -232.1857107097886797    -7.35e-08  5.39e-06  9.43e-05  3.77e-05     0.6
   10    -232.1857107341361370    -2.43e-08  6.63e-07  1.53e-05  1.19e-05     0.6
   11    -232.1857107369666551    -2.83e-09  5.16e-07  9.01e-06  2.66e-06     0.6
   12    -232.1857107372924247    -3.26e-10  3.77e-08  1.06e-06  8.97e-07     0.6
                 **** Energy Check signals convergence ****

               *****************************************************
               *                     SUCCESS                       *
               *           SCF CONVERGED AFTER  12 CYCLES          *
               *****************************************************

Recomputing exchange energy using gridx3       ... done (    0.936 sec)
Old exchange energy                            :     -6.657696080 Eh
New exchange energy                            :     -6.657671153 Eh
Exchange energy change after final integration :      0.000024927 Eh
Total energy after final integration           :   -232.185685810 Eh
             **** ENERGY FILE WAS UPDATED (C6H6_Opt_Geom-B3LYP.en.tmp) ****

----------------
TOTAL SCF ENERGY
----------------

Total Energy       :       -232.18568581033279 Eh           -6318.09372 eV

Components:
Nuclear Repulsion  :        204.95775994435201 Eh            5577.18419 eV
Electronic Energy  :       -437.14347068164443 Eh          -11895.27858 eV
One Electron Energy:       -717.24159799828317 Eh          -19517.13611 eV
Two Electron Energy:        280.09812731663874 Eh            7621.85753 eV

Virial components:
Potential Energy   :       -463.40280470924381 Eh          -12609.83139 eV
Kinetic Energy     :        231.21711889891105 Eh            6291.73767 eV
Virial Ratio       :          2.00418899308163

DFT components:
N(Alpha)           :       21.000021348032 electrons
N(Beta)            :       21.000021348032 electrons
N(Total)           :       42.000042696063 electrons
E(X)               :      -26.427665037157 Eh       
E(C)               :       -1.637841000505 Eh       
E(XC)              :      -28.065506037662 Eh       

---------------
SCF CONVERGENCE
---------------

  Last Energy change         ...    3.2577e-10  Tolerance :   1.0000e-09
  Last MAX-Density change    ...    1.0581e-06  Tolerance :   1.0000e-08
  Last RMS-Density change    ...    3.7690e-08  Tolerance :   1.0000e-09
  Last DIIS Error            ...    8.2574e-04  Tolerance :   1.0000e-08
  Last Orbital Gradient      ...    8.9674e-07  Tolerance :   2.0000e-06
  Last Orbital Rotation      ...    1.9825e-06  Tolerance :   2.0000e-06


----------------
ORBITAL ENERGIES
----------------

  NO   OCC          E(Eh)            E(eV) 
   0   2.0000     -10.171389      -276.7776 
   1   2.0000     -10.171142      -276.7708 
   2   2.0000     -10.171140      -276.7708 
   3   2.0000     -10.170525      -276.7541 
   4   2.0000     -10.170523      -276.7540 
   5   2.0000     -10.170241      -276.7463 
   6   2.0000      -0.858376       -23.3576 
   7   2.0000      -0.747955       -20.3529 
   8   2.0000      -0.747949       -20.3527 
   9   2.0000      -0.604076       -16.4377 
  10   2.0000      -0.604075       -16.4377 
  11   2.0000      -0.527471       -14.3532 
  12   2.0000      -0.460263       -12.5244 
  13   2.0000      -0.450100       -12.2479 
  14   2.0000      -0.423410       -11.5216 
  15   2.0000      -0.423408       -11.5215 
  16   2.0000      -0.372256       -10.1296 
  17   2.0000      -0.345164        -9.3924 
  18   2.0000      -0.345160        -9.3923 
  19   2.0000      -0.257016        -6.9938 
  20   2.0000      -0.257009        -6.9936 
  21   0.0000      -0.010025        -0.2728 
  22   0.0000      -0.010018        -0.2726 
  23   0.0000       0.048473         1.3190 
  24   0.0000       0.081269         2.2114 
  25   0.0000       0.081274         2.2116 
  26   0.0000       0.108703         2.9580 
  27   0.0000       0.108713         2.9582 
  28   0.0000       0.130344         3.5468 
  29   0.0000       0.145968         3.9720 
  30   0.0000       0.149398         4.0653 
  31   0.0000       0.207142         5.6366 
*Only the first 10 virtual orbitals were printed.

                    ********************************
                    * MULLIKEN POPULATION ANALYSIS *
                    ********************************

-----------------------
MULLIKEN ATOMIC CHARGES
-----------------------
   0 C :   -0.132932
   1 C :   -0.132882
   2 C :   -0.133336
   3 C :   -0.132954
   4 C :   -0.132894
   5 C :   -0.133353
   6 H :    0.133022
   7 H :    0.133117
   8 H :    0.133009
   9 H :    0.133061
  10 H :    0.133128
  11 H :    0.133014
Sum of atomic charges:    0.0000000

--------------------------------
MULLIKEN REDUCED ORBITAL CHARGES
--------------------------------
  0 C s       :     3.191420  s :     3.191420
      pz      :     0.954094  p :     2.832911
      px      :     0.969530
      py      :     0.909286
      dz2     :     0.004601  d :     0.101074
      dxz     :     0.010391
      dyz     :     0.019318
      dx2y2   :     0.026571
      dxy     :     0.040193
      f0      :     0.001360  f :     0.007527
      f+1     :     0.000570
      f-1     :     0.000450
      f+2     :     0.000986
      f-2     :     0.000537
      f+3     :     0.002503
      f-3     :     0.001121

  1 C s       :     3.191398  s :     3.191398
      pz      :     0.954095  p :     2.832877
      px      :     0.969515
      py      :     0.909268
      dz2     :     0.004604  d :     0.101080
      dxz     :     0.010391
      dyz     :     0.019318
      dx2y2   :     0.026567
      dxy     :     0.040201
      f0      :     0.001360  f :     0.007527
      f+1     :     0.000570
      f-1     :     0.000450
      f+2     :     0.000986
      f-2     :     0.000537
      f+3     :     0.002503
      f-3     :     0.001121

  2 C s       :     3.192245  s :     3.192245
      pz      :     0.953965  p :     2.832463
      px      :     0.878615
      py      :     0.999883
      dz2     :     0.004620  d :     0.101103
      dxz     :     0.023785
      dyz     :     0.005905
      dx2y2   :     0.047031
      dxy     :     0.019762
      f0      :     0.001359  f :     0.007526
      f+1     :     0.000391
      f-1     :     0.000629
      f+2     :     0.000312
      f-2     :     0.001210
      f+3     :     0.002502
      f-3     :     0.001123

  3 C s       :     3.191431  s :     3.191431
      pz      :     0.954095  p :     2.832914
      px      :     0.969516
      py      :     0.909304
      dz2     :     0.004601  d :     0.101083
      dxz     :     0.010391
      dyz     :     0.019318
      dx2y2   :     0.026580
      dxy     :     0.040193
      f0      :     0.001360  f :     0.007527
      f+1     :     0.000570
      f-1     :     0.000450
      f+2     :     0.000986
      f-2     :     0.000537
      f+3     :     0.002502
      f-3     :     0.001121

  4 C s       :     3.191361  s :     3.191361
      pz      :     0.954095  p :     2.832923
      px      :     0.969551
      py      :     0.909278
      dz2     :     0.004604  d :     0.101082
      dxz     :     0.010390
      dyz     :     0.019318
      dx2y2   :     0.026566
      dxy     :     0.040204
      f0      :     0.001360  f :     0.007527
      f+1     :     0.000570
      f-1     :     0.000450
      f+2     :     0.000986
      f-2     :     0.000537
      f+3     :     0.002503
      f-3     :     0.001121

  5 C s       :     3.192251  s :     3.192251
      pz      :     0.953965  p :     2.832466
      px      :     0.878614
      py      :     0.999888
      dz2     :     0.004620  d :     0.101109
      dxz     :     0.023786
      dyz     :     0.005905
      dx2y2   :     0.047039
      dxy     :     0.019760
      f0      :     0.001359  f :     0.007526
      f+1     :     0.000391
      f-1     :     0.000629
      f+2     :     0.000312
      f-2     :     0.001210
      f+3     :     0.002502
      f-3     :     0.001123

  6 H s       :     0.832435  s :     0.832435
      pz      :     0.012659  p :     0.032923
      px      :     0.010835
      py      :     0.009429
      dz2     :     0.000005  d :     0.001620
      dxz     :     0.000522
      dyz     :     0.000183
      dx2y2   :     0.000679
      dxy     :     0.000230

  7 H s       :     0.832389  s :     0.832389
      pz      :     0.012655  p :     0.032876
      px      :     0.008726
      py      :     0.011494
      dz2     :     0.000004  d :     0.001618
      dxz     :     0.000014
      dyz     :     0.000691
      dx2y2   :     0.000005
      dxy     :     0.000903

  8 H s       :     0.832447  s :     0.832447
      pz      :     0.012659  p :     0.032924
      px      :     0.010835
      py      :     0.009429
      dz2     :     0.000005  d :     0.001620
      dxz     :     0.000522
      dyz     :     0.000183
      dx2y2   :     0.000679
      dxy     :     0.000230

  9 H s       :     0.832400  s :     0.832400
      pz      :     0.012659  p :     0.032920
      px      :     0.010832
      py      :     0.009428
      dz2     :     0.000005  d :     0.001620
      dxz     :     0.000522
      dyz     :     0.000183
      dx2y2   :     0.000679
      dxy     :     0.000230

 10 H s       :     0.832378  s :     0.832378
      pz      :     0.012655  p :     0.032875
      px      :     0.008726
      py      :     0.011494
      dz2     :     0.000004  d :     0.001618
      dxz     :     0.000014
      dyz     :     0.000691
      dx2y2   :     0.000005
      dxy     :     0.000903

 11 H s       :     0.832444  s :     0.832444
      pz      :     0.012659  p :     0.032923
      px      :     0.010834
      py      :     0.009429
      dz2     :     0.000005  d :     0.001620
      dxz     :     0.000522
      dyz     :     0.000183
      dx2y2   :     0.000679
      dxy     :     0.000230



                     *******************************
                     * LOEWDIN POPULATION ANALYSIS *
                     *******************************

----------------------
LOEWDIN ATOMIC CHARGES
----------------------
   0 C :   -0.015015
   1 C :   -0.015015
   2 C :   -0.014995
   3 C :   -0.015016
   4 C :   -0.015015
   5 C :   -0.014995
   6 H :    0.015007
   7 H :    0.015011
   8 H :    0.015007
   9 H :    0.015007
  10 H :    0.015011
  11 H :    0.015007

-------------------------------
LOEWDIN REDUCED ORBITAL CHARGES
-------------------------------
  0 C s       :     2.717729  s :     2.717729
      pz      :     0.845937  p :     2.857398
      px      :     0.995756
      py      :     1.015705
      dz2     :     0.025907  d :     0.395758
      dxz     :     0.030488
      dyz     :     0.061113
      dx2y2   :     0.124788
      dxy     :     0.153462
      f0      :     0.002368  f :     0.044130
      f+1     :     0.003380
      f-1     :     0.003723
      f+2     :     0.006217
      f-2     :     0.003421
      f+3     :     0.016385
      f-3     :     0.008635

  1 C s       :     2.717729  s :     2.717729
      pz      :     0.845937  p :     2.857398
      px      :     0.995757
      py      :     1.015705
      dz2     :     0.025907  d :     0.395758
      dxz     :     0.030488
      dyz     :     0.061113
      dx2y2   :     0.124788
      dxy     :     0.153462
      f0      :     0.002368  f :     0.044130
      f+1     :     0.003380
      f-1     :     0.003723
      f+2     :     0.006217
      f-2     :     0.003421
      f+3     :     0.016385
      f-3     :     0.008635

  2 C s       :     2.717734  s :     2.717734
      pz      :     0.845909  p :     2.857376
      px      :     1.025684
      py      :     0.985783
      dz2     :     0.025907  d :     0.395755
      dxz     :     0.076425
      dyz     :     0.015173
      dx2y2   :     0.167801
      dxy     :     0.110450
      f0      :     0.002367  f :     0.044129
      f+1     :     0.003895
      f-1     :     0.003209
      f+2     :     0.002024
      f-2     :     0.007614
      f+3     :     0.016385
      f-3     :     0.008635

  3 C s       :     2.717729  s :     2.717729
      pz      :     0.845937  p :     2.857398
      px      :     0.995757
      py      :     1.015705
      dz2     :     0.025907  d :     0.395758
      dxz     :     0.030488
      dyz     :     0.061113
      dx2y2   :     0.124788
      dxy     :     0.153462
      f0      :     0.002368  f :     0.044130
      f+1     :     0.003380
      f-1     :     0.003723
      f+2     :     0.006217
      f-2     :     0.003421
      f+3     :     0.016385
      f-3     :     0.008635

  4 C s       :     2.717729  s :     2.717729
      pz      :     0.845937  p :     2.857398
      px      :     0.995757
      py      :     1.015705
      dz2     :     0.025907  d :     0.395758
      dxz     :     0.030488
      dyz     :     0.061113
      dx2y2   :     0.124788
      dxy     :     0.153462
      f0      :     0.002368  f :     0.044130
      f+1     :     0.003380
      f-1     :     0.003723
      f+2     :     0.006217
      f-2     :     0.003421
      f+3     :     0.016385
      f-3     :     0.008635

  5 C s       :     2.717734  s :     2.717734
      pz      :     0.845909  p :     2.857376
      px      :     1.025684
      py      :     0.985783
      dz2     :     0.025907  d :     0.395755
      dxz     :     0.076425
      dyz     :     0.015173
      dx2y2   :     0.167801
      dxy     :     0.110450
      f0      :     0.002367  f :     0.044129
      f+1     :     0.003895
      f-1     :     0.003209
      f+2     :     0.002024
      f-2     :     0.007614
      f+3     :     0.016385
      f-3     :     0.008635

  6 H s       :     0.806822  s :     0.806822
      pz      :     0.042063  p :     0.148972
      px      :     0.062757
      py      :     0.044152
      dz2     :     0.002674  d :     0.029200
      dxz     :     0.006281
      dyz     :     0.002124
      dx2y2   :     0.009268
      dxy     :     0.008853

  7 H s       :     0.806820  s :     0.806820
      pz      :     0.042060  p :     0.148969
      px      :     0.034848
      py      :     0.072060
      dz2     :     0.002674  d :     0.029200
      dxz     :     0.000045
      dyz     :     0.008360
      dx2y2   :     0.008645
      dxy     :     0.009476

  8 H s       :     0.806822  s :     0.806822
      pz      :     0.042063  p :     0.148972
      px      :     0.062757
      py      :     0.044152
      dz2     :     0.002674  d :     0.029200
      dxz     :     0.006281
      dyz     :     0.002124
      dx2y2   :     0.009268
      dxy     :     0.008853

  9 H s       :     0.806822  s :     0.806822
      pz      :     0.042063  p :     0.148972
      px      :     0.062757
      py      :     0.044152
      dz2     :     0.002674  d :     0.029200
      dxz     :     0.006281
      dyz     :     0.002124
      dx2y2   :     0.009268
      dxy     :     0.008853

 10 H s       :     0.806820  s :     0.806820
      pz      :     0.042060  p :     0.148969
      px      :     0.034848
      py      :     0.072060
      dz2     :     0.002674  d :     0.029200
      dxz     :     0.000045
      dyz     :     0.008360
      dx2y2   :     0.008645
      dxy     :     0.009476

 11 H s       :     0.806822  s :     0.806822
      pz      :     0.042063  p :     0.148972
      px      :     0.062757
      py      :     0.044152
      dz2     :     0.002674  d :     0.029200
      dxz     :     0.006281
      dyz     :     0.002124
      dx2y2   :     0.009268
      dxy     :     0.008853



                      *****************************
                      * MAYER POPULATION ANALYSIS *
                      *****************************

  NA   - Mulliken gross atomic population
  ZA   - Total nuclear charge
  QA   - Mulliken gross atomic charge
  VA   - Mayer's total valence
  BVA  - Mayer's bonded valence
  FA   - Mayer's free valence

  ATOM       NA         ZA         QA         VA         BVA        FA
  0 C      6.1329     6.0000    -0.1329     3.9522     3.9522     0.0000
  1 C      6.1329     6.0000    -0.1329     3.9521     3.9521     0.0000
  2 C      6.1333     6.0000    -0.1333     3.9514     3.9514     0.0000
  3 C      6.1330     6.0000    -0.1330     3.9523     3.9523     0.0000
  4 C      6.1329     6.0000    -0.1329     3.9521     3.9521     0.0000
  5 C      6.1334     6.0000    -0.1334     3.9515     3.9515     0.0000
  6 H      0.8670     1.0000     0.1330     0.9958     0.9958     0.0000
  7 H      0.8669     1.0000     0.1331     0.9959     0.9959    -0.0000
  8 H      0.8670     1.0000     0.1330     0.9958     0.9958     0.0000
  9 H      0.8669     1.0000     0.1331     0.9958     0.9958     0.0000
 10 H      0.8669     1.0000     0.1331     0.9959     0.9959    -0.0000
 11 H      0.8670     1.0000     0.1330     0.9958     0.9958    -0.0000

  Mayer bond orders larger than 0.100000
B(  0-C ,  1-C ) :   1.4343 B(  0-C ,  5-C ) :   1.4337 B(  0-C , 11-H ) :   0.9582 
B(  1-C ,  2-C ) :   1.4337 B(  1-C ,  6-H ) :   0.9582 B(  2-C ,  3-C ) :   1.4337 
B(  2-C ,  7-H ) :   0.9582 B(  3-C ,  4-C ) :   1.4343 B(  3-C ,  8-H ) :   0.9582 
B(  4-C ,  5-C ) :   1.4337 B(  4-C ,  9-H ) :   0.9581 B(  5-C , 10-H ) :   0.9582 


-------
TIMINGS
-------

Total SCF time: 0 days 0 hours 0 min 9 sec 

Total time                  ....       9.221 sec
Sum of individual times     ....       9.175 sec  ( 99.5%)

SCF preparation             ....       0.604 sec  (  6.5%)
Fock matrix formation       ....       7.518 sec  ( 81.5%)
  Startup                   ....       0.038 sec  (  0.5% of F)
  Split-RI-J                ....       0.682 sec  (  9.1% of F)
  Chain of spheres X        ....       5.538 sec  ( 73.7% of F)
  XC integration            ....       1.127 sec  ( 15.0% of F)
    XC Preparation          ....       0.000 sec  (  0.0% of XC)
    Basis function eval.    ....       0.219 sec  ( 19.4% of XC)
    Density eval.           ....       0.303 sec  ( 26.9% of XC)
    XC-Functional eval.     ....       0.016 sec  (  1.4% of XC)
    XC-Potential eval.      ....       0.386 sec  ( 34.3% of XC)
Diagonalization             ....       0.000 sec  (  0.0%)
Density matrix formation    ....       0.114 sec  (  1.2%)
Total Energy calculation    ....       0.068 sec  (  0.7%)
Population analysis         ....       0.053 sec  (  0.6%)
Orbital Transformation      ....       0.102 sec  (  1.1%)
Orbital Orthonormalization  ....       0.000 sec  (  0.0%)
DIIS solution               ....       0.462 sec  (  5.0%)
SOSCF solution              ....       0.255 sec  (  2.8%)
Finished LeanSCF after   9.2 sec

Maximum memory used throughout the entire LEANSCF-calculation: 23.4 MB

-------------------------   --------------------
FINAL SINGLE POINT ENERGY      -232.185685810333
-------------------------   --------------------



           ************************************************************
           *        Program running with 30 parallel MPI-processes    *
           *              working on a common directory               *
           ************************************************************
------------------------------------------------------------------------------
                         ORCA SCF GRADIENT CALCULATION
------------------------------------------------------------------------------

Nuc. rep. gradient        (SHARK) ... done (  0.0 sec)
HCore & Overlap gradient  (SHARK) ... done (  0.0 sec)
Split-RIJ-J gradient      (SHARK) ... done (  0.3 sec)
COSX-gradient                     ... done (  4.2 sec)
XC gradient                       ... done (  0.6 sec)

------------------
CARTESIAN GRADIENT
------------------

   1   C   :    0.003893908   -0.002259737   -0.000000005
   2   C   :    0.003893913    0.002259807    0.000000006
   3   C   :    0.000000023    0.004522016   -0.000000009
   4   C   :   -0.003893930    0.002259735    0.000000002
   5   C   :   -0.003893885   -0.002259747   -0.000000013
   6   C   :    0.000000003   -0.004522057    0.000000019
   7   H   :    0.002214477    0.001282585   -0.000000002
   8   H   :    0.000000016    0.002554060    0.000000010
   9   H   :   -0.002214476    0.001282572   -0.000000003
  10   H   :   -0.002214498   -0.001282592   -0.000000001
  11   H   :   -0.000000017   -0.002554056   -0.000000000
  12   H   :    0.002214467   -0.001282584   -0.000000004

Difference to translation invariance:
           :   -0.0000000000   -0.0000000000   -0.0000000000

Difference to rotation invariance:
           :   -0.0000000118    0.0000000176   -0.0000000430

Norm of the Cartesian gradient     ...    0.0126970827
RMS gradient                       ...    0.0021161804
MAX gradient                       ...    0.0045220573

-------
TIMINGS
-------

Total SCF gradient time     ....        5.086 sec

Densities                   ....       0.002 sec  (  0.0%)
One electron gradient       ....       0.042 sec  (  0.8%)
RI-J Coulomb gradient       ....       0.251 sec  (  4.9%)
COSX gradient               ....       4.212 sec  ( 82.8%)
XC gradient                 ....       0.578 sec  ( 11.4%)

Maximum memory used throughout the entire SCFGRAD-calculation: 29.8 MB
------------------------------------------------------------------------------
                         ORCA GEOMETRY RELAXATION STEP
------------------------------------------------------------------------------

Reading the OPT-File                    .... done
Getting information on internals        .... done
Copying old internal coords+grads       .... done
Making the new internal coordinates     .... (2022 redundants) done
Validating the new internal coordinates .... (2022 redundants) done
Calculating the B-matrix                .... done
Calculating the G,G- and P matrices     .... done
Transforming gradient to internals      .... done
Projecting the internal gradient        .... done
Number of atoms                         ....  12
Number of internal coordinates          ....  54
Current Energy                          ....  -232.185685810 Eh
Current gradient norm                   ....     0.012697083 Eh/bohr
Maximum allowed component of the step   ....  0.300
Current trust radius                    ....  0.300
Evaluating the initial hessian          ....  (Almloef) done
Projecting the Hessian                  .... done
Forming the augmented Hessian           .... done
Diagonalizing the augmented Hessian     .... done
Last element of RFO vector              ....  0.999494146
Lowest eigenvalues of augmented Hessian:
 -0.000573520  0.028280291  0.028280291  0.028280336  0.028280336
Length of the computed step             ....  0.031819419
The final length of the internal step   ....  0.031819419
Converting the step to Cartesian space:
 Initial RMS(Int)=    0.0043300745
Transforming coordinates:
 Iter   0:  RMS(Cart)=    0.0085807985 RMS(Int)=    2.2622093800
done
Storing new coordinates                 .... done

                                .--------------------.
          ----------------------|Geometry convergence|-------------------------
          Item                value                   Tolerance       Converged
          ---------------------------------------------------------------------
          RMS gradient        0.0025049092            0.0000100000      NO
          MAX gradient        0.0070804018            0.0001000000      NO
          RMS step            0.0043300745            0.0000100000      NO
          MAX step            0.0110857977            0.0001000000      NO
          ........................................................
          Max(Bonds)      0.0059      Max(Angles)    0.00
          Max(Dihed)        0.00      Max(Improp)    0.00
          ---------------------------------------------------------------------

The optimization has not yet converged - more geometry cycles are needed


    ---------------------------------------------------------------------------
                         Redundant Internal Coordinates
                            (Angstroem and degrees)

        Definition                    Value    dE/dq     Step     New-Value
    ----------------------------------------------------------------------------
     1. B(C   1,C   0)                1.3843 -0.007080  0.0059    1.3901   
     2. B(C   2,C   1)                1.3843 -0.007059  0.0058    1.3901   
     3. B(C   3,C   2)                1.3843 -0.007059  0.0058    1.3901   
     4. B(C   4,C   3)                1.3843 -0.007080  0.0059    1.3901   
     5. B(C   5,C   4)                1.3843 -0.007059  0.0058    1.3901   
     6. B(C   5,C   0)                1.3843 -0.007059  0.0058    1.3901   
     7. B(H   6,C   1)                1.0789 -0.002559  0.0036    1.0825   
     8. B(H   7,C   2)                1.0789 -0.002554  0.0036    1.0825   
     9. B(H   8,C   3)                1.0789 -0.002559  0.0036    1.0825   
    10. B(H   9,C   4)                1.0789 -0.002559  0.0036    1.0825   
    11. B(H  10,C   5)                1.0789 -0.002554  0.0036    1.0825   
    12. B(H  11,C   0)                1.0789 -0.002559  0.0036    1.0825   
    13. A(C   1,C   0,H  11)          120.00 -0.000001    0.00    120.00   
    14. A(C   5,C   0,H  11)          120.00  0.000006   -0.00    120.00   
    15. A(C   1,C   0,C   5)          120.00 -0.000005    0.00    120.00   
    16. A(C   0,C   1,C   2)          120.00 -0.000005    0.00    120.00   
    17. A(C   2,C   1,H   6)          120.00  0.000006   -0.00    120.00   
    18. A(C   0,C   1,H   6)          120.00 -0.000001    0.00    120.00   
    19. A(C   3,C   2,H   7)          120.00 -0.000005    0.00    120.00   
    20. A(C   1,C   2,H   7)          120.00 -0.000005    0.00    120.00   
    21. A(C   1,C   2,C   3)          120.00  0.000010   -0.00    120.00   
    22. A(C   2,C   3,C   4)          120.00 -0.000005    0.00    120.00   
    23. A(C   4,C   3,H   8)          120.00 -0.000001    0.00    120.00   
    24. A(C   2,C   3,H   8)          120.00  0.000006   -0.00    120.00   
    25. A(C   5,C   4,H   9)          120.00  0.000006   -0.00    120.00   
    26. A(C   3,C   4,H   9)          120.00 -0.000001    0.00    120.00   
    27. A(C   3,C   4,C   5)          120.00 -0.000005    0.00    120.00   
    28. A(C   0,C   5,H  10)          120.00 -0.000005    0.00    120.00   
    29. A(C   0,C   5,C   4)          120.00  0.000010   -0.00    120.00   
    30. A(C   4,C   5,H  10)          120.00 -0.000005    0.00    120.00   
    31. D(H   6,C   1,C   0,C   5)    180.00 -0.000000    0.00    180.00   
    32. D(H   6,C   1,C   0,H  11)      0.00 -0.000000    0.00      0.00   
    33. D(C   2,C   1,C   0,H  11)    180.00 -0.000000    0.00    180.00   
    34. D(C   2,C   1,C   0,C   5)      0.00 -0.000000    0.00      0.00   
    35. D(H   7,C   2,C   1,C   0)    180.00 -0.000000    0.00    180.00   
    36. D(C   3,C   2,C   1,C   0)      0.00 -0.000000    0.00      0.00   
    37. D(C   3,C   2,C   1,H   6)    180.00 -0.000000    0.00    180.00   
    38. D(H   7,C   2,C   1,H   6)      0.00 -0.000000    0.00      0.00   
    39. D(H   8,C   3,C   2,H   7)      0.00  0.000000   -0.00     -0.00   
    40. D(H   8,C   3,C   2,C   1)    180.00  0.000000   -0.00    180.00   
    41. D(C   4,C   3,C   2,H   7)    180.00  0.000000   -0.00    180.00   
    42. D(C   4,C   3,C   2,C   1)      0.00  0.000000   -0.00     -0.00   
    43. D(H   9,C   4,C   3,C   2)    180.00 -0.000000    0.00    180.00   
    44. D(C   5,C   4,C   3,H   8)    180.00  0.000000   -0.00    180.00   
    45. D(C   5,C   4,C   3,C   2)      0.00  0.000000   -0.00     -0.00   
    46. D(H   9,C   4,C   3,H   8)      0.00 -0.000000    0.00      0.00   
    47. D(H  10,C   5,C   4,H   9)      0.00  0.000000   -0.00     -0.00   
    48. D(C   0,C   5,C   4,H   9)    180.00 -0.000000    0.00    180.00   
    49. D(C   0,C   5,C   4,C   3)      0.00 -0.000000    0.00      0.00   
    50. D(H  10,C   5,C   0,H  11)      0.00  0.000000   -0.00     -0.00   
    51. D(H  10,C   5,C   0,C   1)    180.00  0.000000   -0.00    180.00   
    52. D(H  10,C   5,C   4,C   3)    180.00 -0.000000    0.00    180.00   
    53. D(C   4,C   5,C   0,H  11)    180.00  0.000000   -0.00    180.00   
    54. D(C   4,C   5,C   0,C   1)      0.00  0.000000   -0.00     -0.00   
    ----------------------------------------------------------------------------

Geometry step timings:
Preparation and reading OPT file:      0.001 s (11.549 %)
Internal coordinates            :      0.000 s ( 1.344 %)
B/P matrices and projection     :      0.001 s (22.232 %)
Hessian update/contruction      :      0.001 s (12.574 %)
Making the step                 :      0.001 s (17.403 %)
Converting the step to Cartesian:      0.000 s ( 2.825 %)
Storing new data                :      0.000 s ( 1.617 %)
Checking convergence            :      0.000 s ( 0.091 %)
Final printing                  :      0.001 s (30.205 %)
Total time                      :      0.004 s

Time for energy+gradient        :     18.640 s
Time for complete geometry iter :     19.583 s

         *************************************************************
         *                GEOMETRY OPTIMIZATION CYCLE   2            *
         *************************************************************
---------------------------------
CARTESIAN COORDINATES (ANGSTROEM)
---------------------------------
  C     -1.203859    0.695062    0.000000
  C     -1.203859   -0.695062    0.000000
  C     -0.000000   -1.390126   -0.000000
  C      1.203859   -0.695062    0.000000
  C      1.203859    0.695062    0.000000
  C      0.000000    1.390126   -0.000000
  H     -2.141331   -1.236317    0.000000
  H     -0.000000   -2.472621   -0.000000
  H      2.141331   -1.236317    0.000000
  H      2.141331    1.236317    0.000000
  H      0.000000    2.472621   -0.000000
  H     -2.141331    1.236317    0.000000

----------------------------
CARTESIAN COORDINATES (A.U.)
----------------------------
  NO LB      ZA    FRAG     MASS         X           Y           Z
   0 C     6.0000    0    12.011   -2.274964    1.313476    0.000000
   1 C     6.0000    0    12.011   -2.274964   -1.313476    0.000000
   2 C     6.0000    0    12.011   -0.000000   -2.626957   -0.000000
   3 C     6.0000    0    12.011    2.274964   -1.313476    0.000000
   4 C     6.0000    0    12.011    2.274964    1.313476    0.000000
   5 C     6.0000    0    12.011    0.000000    2.626957   -0.000000
   6 H     1.0000    0     1.008   -4.046530   -2.336301    0.000000
   7 H     1.0000    0     1.008   -0.000000   -4.672577   -0.000000
   8 H     1.0000    0     1.008    4.046530   -2.336301    0.000000
   9 H     1.0000    0     1.008    4.046530    2.336301    0.000000
  10 H     1.0000    0     1.008    0.000000    4.672577   -0.000000
  11 H     1.0000    0     1.008   -4.046530    2.336301    0.000000

--------------------------------
INTERNAL COORDINATES (ANGSTROEM)
--------------------------------
 C      0   0   0     0.000000000000     0.00000000     0.00000000
 C      1   0   0     1.390123551481     0.00000000     0.00000000
 C      2   1   0     1.390104584363   120.00055517     0.00000000
 C      3   2   1     1.390104634784   119.99888519     0.00000000
 C      4   3   2     1.390123526521   120.00055874     0.00000000
 C      5   4   3     1.390104597551   120.00055752     0.00000000
 H      2   1   3     1.082502441952   120.00025585   179.99999852
 H      3   2   1     1.082495665749   120.00055460   180.00000782
 H      4   3   2     1.082502431644   119.99918861   179.99999600
 H      5   4   3     1.082502473043   120.00025403   180.00000209
 H      6   5   4     1.082495660110   120.00055549   180.00000191
 H      1   2   3     1.082502429479   120.00025435   180.00000270

---------------------------
INTERNAL COORDINATES (A.U.)
---------------------------
 C      0   0   0     0.000000000000     0.00000000     0.00000000
 C      1   0   0     2.626952804612     0.00000000     0.00000000
 C      2   1   0     2.626916961954   120.00055517     0.00000000
 C      3   2   1     2.626917057237   119.99888519     0.00000000
 C      4   3   2     2.626952757445   120.00055874     0.00000000
 C      5   4   3     2.626916986877   120.00055752     0.00000000
 H      2   1   3     2.045633154590   120.00025585   179.99999852
 H      3   2   1     2.045620349423   120.00055460   180.00000782
 H      4   3   2     2.045633135112   119.99918861   179.99999600
 H      5   4   3     2.045633213343   120.00025403   180.00000209
 H      6   5   4     2.045620338766   120.00055549   180.00000191
 H      1   2   3     2.045633131021   120.00025435   180.00000270



           ************************************************************
           *        Program running with 30 parallel MPI-processes    *
           *              working on a common directory               *
           ************************************************************
------------------------------------------------------------------------------
                   ___                                                        
                  /   \      - P O W E R E D   B Y -                         
                 /     \                                                     
                 |  |  |   _    _      __       _____    __    __             
                 |  |  |  | |  | |    /  \     |  _  \  |  |  /  |          
                  \  \/   | |  | |   /    \    | | | |  |  | /  /          
                 / \  \   | |__| |  /  /\  \   | |_| |  |  |/  /          
                |  |  |   |  __  | /  /__\  \  |    /   |      \           
                |  |  |   | |  | | |   __   |  |    \   |  |\   \          
                \     /   | |  | | |  |  |  |  | |\  \  |  | \   \       
                 \___/    |_|  |_| |__|  |__|  |_| \__\ |__|  \__/        
                                                                              
                      - O R C A' S   B I G   F R I E N D -                    
                                      &                                       
                       - I N T E G R A L  F E E D E R -                       
                                                                              
 v1 FN, 2020, v2 2021, v3 2022-2024                                           
------------------------------------------------------------------------------


----------------------
SHARK INTEGRAL PACKAGE
----------------------

Number of atoms                             ...     12
Number of basis functions                   ...    270
Number of shells                            ...    102
Maximum angular momentum                    ...      3
Integral batch strategy                     ... SHARK/LIBINT Hybrid
RI-J (if used) integral strategy            ... SPLIT-RIJ (Revised 2003 algorithm where possible)
Printlevel                                  ...      1
Contraction scheme used                     ... SEGMENTED contraction
Prescreening option                         ... SCHWARTZ
   Thresh                                   ... 1.000e-12
   Tcut                                     ... 1.000e-14
   Tpresel                                  ... 1.000e-14 
Coulomb Range Separation                    ... NOT USED
Exchange Range Separation                   ... NOT USED
Multipole approximations                    ... NOT USED
Finite Nucleus Model                        ... NOT USED
CABS basis                                  ... NOT available
Auxiliary Coulomb fitting basis             ... AVAILABLE
   # of basis functions in Aux-J            ...    360
   # of shells in Aux-J                     ...    120
   Maximum angular momentum in Aux-J        ...      4
Auxiliary J/K fitting basis                 ... NOT available
Auxiliary Correlation fitting basis         ... NOT available
Auxiliary 'external' fitting basis          ... NOT available

Checking pre-screening integrals            ... done (  0.0 sec) Dimension = 102
Check shell pair data                       ... done (  0.0 sec)
Shell pair information
Shell pair cut-off parameter TPreSel        ...   1.0e-14
Total number of shell pairs                 ...      5253
Shell pairs after pre-screening             ...      5046
Total number of primitive shell pairs       ...     14346
Primitive shell pairs kept                  ...     11307
          la=0 lb=0:   1095 shell pairs
          la=1 lb=0:   1386 shell pairs
          la=1 lb=1:    456 shell pairs
          la=2 lb=0:    822 shell pairs
          la=2 lb=1:    522 shell pairs
          la=2 lb=2:    168 shell pairs
          la=3 lb=0:    288 shell pairs
          la=3 lb=1:    180 shell pairs
          la=3 lb=2:    108 shell pairs
          la=3 lb=3:     21 shell pairs

Calculating one electron integrals          ... done (  0.0 sec)
Calculating RI/J V-Matrix + Cholesky decomp.... done (  0.0 sec)
Calculating Nuclear repulsion               ... done (  0.0 sec) ENN=    204.121859690437 Eh

Diagonalization of the overlap matrix:
Smallest eigenvalue                        ... 1.008e-05
Time for diagonalization                   ...    0.015 sec
Threshold for overlap eigenvalues          ... 1.000e-07
Number of eigenvalues below threshold      ... 0
Time for construction of square roots      ...    0.010 sec
Total time needed                          ...    0.028 sec

-------------------
DFT GRID GENERATION
-------------------

General Integration Accuracy     IntAcc      ... 4.388
Radial Grid Type                 RadialGrid  ... OptM3 with GC (2021)
Angular Grid (max. ang.)         AngularGrid ... 4 (Lebedev-302)
Angular grid pruning method      GridPruning ... 4 (adaptive)
Weight generation scheme         WeightScheme... mBecke (2022)
Basis function cutoff            BFCut       ... 1.0000e-12
Integration weight cutoff        WCut        ... 1.0000e-14
Partially contracted basis set               ... off
[...]

  5 C s       :     3.195547  s :     3.195547
      pz      :     0.954498  p :     2.829565
      px      :     0.877249
      py      :     0.997819
      dz2     :     0.004583  d :     0.100139
      dxz     :     0.023473
      dyz     :     0.005801
      dx2y2   :     0.046320
      dxy     :     0.019961
      f0      :     0.001338  f :     0.007452
      f+1     :     0.000406
      f-1     :     0.000632
      f+2     :     0.000307
      f-2     :     0.001187
      f+3     :     0.002425
      f-3     :     0.001157

  6 H s       :     0.833147  s :     0.833147
      pz      :     0.012598  p :     0.032852
      px      :     0.010837
      py      :     0.009417
      dz2     :     0.000008  d :     0.001616
      dxz     :     0.000518
      dyz     :     0.000182
      dx2y2   :     0.000673
      dxy     :     0.000235

  7 H s       :     0.833083  s :     0.833083
      pz      :     0.012594  p :     0.032805
      px      :     0.008707
      py      :     0.011504
      dz2     :     0.000007  d :     0.001615
      dxz     :     0.000014
      dyz     :     0.000686
      dx2y2   :     0.000015
      dxy     :     0.000892

  8 H s       :     0.833148  s :     0.833148
      pz      :     0.012598  p :     0.032852
      px      :     0.010837
      py      :     0.009417
      dz2     :     0.000008  d :     0.001616
      dxz     :     0.000518
      dyz     :     0.000182
      dx2y2   :     0.000673
      dxy     :     0.000235

  9 H s       :     0.833147  s :     0.833147
      pz      :     0.012598  p :     0.032852
      px      :     0.010836
      py      :     0.009417
      dz2     :     0.000008  d :     0.001616
      dxz     :     0.000518
      dyz     :     0.000182
      dx2y2   :     0.000673
      dxy     :     0.000235

 10 H s       :     0.833078  s :     0.833078
      pz      :     0.012594  p :     0.032804
      px      :     0.008706
      py      :     0.011504
      dz2     :     0.000007  d :     0.001615
      dxz     :     0.000014
      dyz     :     0.000686
      dx2y2   :     0.000015
      dxy     :     0.000892

 11 H s       :     0.833150  s :     0.833150
      pz      :     0.012598  p :     0.032853
      px      :     0.010837
      py      :     0.009417
      dz2     :     0.000008  d :     0.001616
      dxz     :     0.000518
      dyz     :     0.000182
      dx2y2   :     0.000673
      dxy     :     0.000235



                     *******************************
                     * LOEWDIN POPULATION ANALYSIS *
                     *******************************

----------------------
LOEWDIN ATOMIC CHARGES
----------------------
   0 C :   -0.015546
   1 C :   -0.015546
   2 C :   -0.015528
   3 C :   -0.015547
   4 C :   -0.015547
   5 C :   -0.015528
   6 H :    0.015539
   7 H :    0.015542
   8 H :    0.015539
   9 H :    0.015539
  10 H :    0.015542
  11 H :    0.015539

-------------------------------
LOEWDIN REDUCED ORBITAL CHARGES
-------------------------------
  0 C s       :     2.722599  s :     2.722599
      pz      :     0.848193  p :     2.859346
      px      :     0.996196
      py      :     1.014956
      dz2     :     0.025535  d :     0.390642
      dxz     :     0.030005
      dyz     :     0.060125
      dx2y2   :     0.123455
      dxy     :     0.151522
      f0      :     0.002306  f :     0.042959
      f+1     :     0.003346
      f-1     :     0.003686
      f+2     :     0.006045
      f-2     :     0.003334
      f+3     :     0.015800
      f-3     :     0.008442

  1 C s       :     2.722599  s :     2.722599
      pz      :     0.848193  p :     2.859345
      px      :     0.996196
      py      :     1.014956
      dz2     :     0.025535  d :     0.390642
      dxz     :     0.030005
      dyz     :     0.060125
      dx2y2   :     0.123455
      dxy     :     0.151522
      f0      :     0.002306  f :     0.042959
      f+1     :     0.003346
      f-1     :     0.003686
      f+2     :     0.006045
      f-2     :     0.003334
      f+3     :     0.015800
      f-3     :     0.008442

  2 C s       :     2.722600  s :     2.722600
      pz      :     0.848159  p :     2.859323
      px      :     1.024350
      py      :     0.986813
      dz2     :     0.025535  d :     0.390645
      dxz     :     0.075185
      dyz     :     0.014943
      dx2y2   :     0.165564
      dxy     :     0.109418
      f0      :     0.002306  f :     0.042960
      f+1     :     0.003856
      f-1     :     0.003177
      f+2     :     0.001979
      f-2     :     0.007400
      f+3     :     0.015800
      f-3     :     0.008442

  3 C s       :     2.722600  s :     2.722600
      pz      :     0.848193  p :     2.859346
      px      :     0.996197
      py      :     1.014956
      dz2     :     0.025535  d :     0.390642
      dxz     :     0.030005
      dyz     :     0.060125
      dx2y2   :     0.123455
      dxy     :     0.151522
      f0      :     0.002306  f :     0.042959
      f+1     :     0.003346
      f-1     :     0.003686
      f+2     :     0.006045
      f-2     :     0.003334
      f+3     :     0.015800
      f-3     :     0.008442

  4 C s       :     2.722600  s :     2.722600
      pz      :     0.848193  p :     2.859346
      px      :     0.996197
      py      :     1.014956
      dz2     :     0.025535  d :     0.390642
      dxz     :     0.030005
      dyz     :     0.060125
      dx2y2   :     0.123455
      dxy     :     0.151522
      f0      :     0.002306  f :     0.042959
      f+1     :     0.003346
      f-1     :     0.003686
      f+2     :     0.006045
      f-2     :     0.003334
      f+3     :     0.015800
      f-3     :     0.008442

  5 C s       :     2.722600  s :     2.722600
      pz      :     0.848159  p :     2.859323
      px      :     1.024350
      py      :     0.986813
      dz2     :     0.025535  d :     0.390645
      dxz     :     0.075185
      dyz     :     0.014943
      dx2y2   :     0.165564
      dxy     :     0.109418
      f0      :     0.002306  f :     0.042960
      f+1     :     0.003856
      f-1     :     0.003177
      f+2     :     0.001979
      f-2     :     0.007400
      f+3     :     0.015800
      f-3     :     0.008442

  6 H s       :     0.807444  s :     0.807444
      pz      :     0.041711  p :     0.148172
      px      :     0.062629
      py      :     0.043832
      dz2     :     0.002665  d :     0.028844
      dxz     :     0.006199
      dyz     :     0.002095
      dx2y2   :     0.009109
      dxy     :     0.008777

  7 H s       :     0.807442  s :     0.807442
      pz      :     0.041709  p :     0.148171
      px      :     0.034433
      py      :     0.072029
      dz2     :     0.002665  d :     0.028845
      dxz     :     0.000042
      dyz     :     0.008252
      dx2y2   :     0.008611
      dxy     :     0.009276

  8 H s       :     0.807444  s :     0.807444
      pz      :     0.041711  p :     0.148172
      px      :     0.062629
      py      :     0.043832
      dz2     :     0.002665  d :     0.028844
      dxz     :     0.006199
      dyz     :     0.002095
      dx2y2   :     0.009109
      dxy     :     0.008777

  9 H s       :     0.807444  s :     0.807444
      pz      :     0.041711  p :     0.148172
      px      :     0.062629
      py      :     0.043832
      dz2     :     0.002665  d :     0.028844
      dxz     :     0.006199
      dyz     :     0.002095
      dx2y2   :     0.009109
      dxy     :     0.008777

 10 H s       :     0.807442  s :     0.807442
      pz      :     0.041709  p :     0.148171
      px      :     0.034433
      py      :     0.072029
      dz2     :     0.002665  d :     0.028845
      dxz     :     0.000042
      dyz     :     0.008252
      dx2y2   :     0.008611
      dxy     :     0.009276

 11 H s       :     0.807444  s :     0.807444
      pz      :     0.041711  p :     0.148172
      px      :     0.062629
      py      :     0.043832
      dz2     :     0.002665  d :     0.028844
      dxz     :     0.006199
      dyz     :     0.002095
      dx2y2   :     0.009109
      dxy     :     0.008777



                      *****************************
                      * MAYER POPULATION ANALYSIS *
                      *****************************

  NA   - Mulliken gross atomic population
  ZA   - Total nuclear charge
  QA   - Mulliken gross atomic charge
  VA   - Mayer's total valence
  BVA  - Mayer's bonded valence
  FA   - Mayer's free valence

  ATOM       NA         ZA         QA         VA         BVA        FA
  0 C      6.1323     6.0000    -0.1323     3.9486     3.9486     0.0000
  1 C      6.1323     6.0000    -0.1323     3.9486     3.9486     0.0000
  2 C      6.1327     6.0000    -0.1327     3.9480     3.9480     0.0000
  3 C      6.1323     6.0000    -0.1323     3.9486     3.9486     0.0000
  4 C      6.1323     6.0000    -0.1323     3.9486     3.9486     0.0000
  5 C      6.1327     6.0000    -0.1327     3.9480     3.9480     0.0000
  6 H      0.8676     1.0000     0.1324     0.9956     0.9956     0.0000
  7 H      0.8675     1.0000     0.1325     0.9957     0.9957     0.0000
  8 H      0.8676     1.0000     0.1324     0.9956     0.9956     0.0000
  9 H      0.8676     1.0000     0.1324     0.9956     0.9956     0.0000
 10 H      0.8675     1.0000     0.1325     0.9957     0.9957     0.0000
 11 H      0.8676     1.0000     0.1324     0.9956     0.9956     0.0000

  Mayer bond orders larger than 0.100000
B(  0-C ,  1-C ) :   1.4323 B(  0-C ,  5-C ) :   1.4318 B(  0-C , 11-H ) :   0.9585 
B(  1-C ,  2-C ) :   1.4317 B(  1-C ,  6-H ) :   0.9585 B(  2-C ,  3-C ) :   1.4317 
B(  2-C ,  7-H ) :   0.9585 B(  3-C ,  4-C ) :   1.4323 B(  3-C ,  8-H ) :   0.9585 
B(  4-C ,  5-C ) :   1.4318 B(  4-C ,  9-H ) :   0.9585 B(  5-C , 10-H ) :   0.9585 


-------
TIMINGS
-------

Total SCF time: 0 days 0 hours 0 min 3 sec 

Total time                  ....       3.325 sec
Sum of individual times     ....       3.274 sec  ( 98.5%)

SCF preparation             ....       0.633 sec  ( 19.0%)
Fock matrix formation       ....       2.318 sec  ( 69.7%)
  Startup                   ....       0.012 sec  (  0.5% of F)
  Split-RI-J                ....       0.121 sec  (  5.2% of F)
  Chain of spheres X        ....       1.957 sec  ( 84.4% of F)
  XC integration            ....       0.205 sec  (  8.8% of F)
    XC Preparation          ....       0.000 sec  (  0.0% of XC)
    Basis function eval.    ....       0.035 sec  ( 17.2% of XC)
    Density eval.           ....       0.051 sec  ( 24.9% of XC)
    XC-Functional eval.     ....       0.003 sec  (  1.4% of XC)
    XC-Potential eval.      ....       0.079 sec  ( 38.6% of XC)
Diagonalization             ....       0.000 sec  (  0.0%)
Density matrix formation    ....       0.018 sec  (  0.5%)
Total Energy calculation    ....       0.018 sec  (  0.5%)
Population analysis         ....       0.065 sec  (  2.0%)
Orbital Transformation      ....       0.050 sec  (  1.5%)
Orbital Orthonormalization  ....       0.000 sec  (  0.0%)
DIIS solution               ....       0.085 sec  (  2.6%)
SOSCF solution              ....       0.087 sec  (  2.6%)
Finished LeanSCF after   3.4 sec

Maximum memory used throughout the entire LEANSCF-calculation: 23.9 MB

-------------------------   --------------------
FINAL SINGLE POINT ENERGY      -232.186020292936
-------------------------   --------------------

                                *** OPTIMIZATION RUN DONE ***



           ************************************************************
           *        Program running with 30 parallel MPI-processes    *
           *              working on a common directory               *
           ************************************************************

------------------------------------------------------------------------------
                              ORCA PROPERTY CALCULATIONS
------------------------------------------------------------------------------

GBWName                                 ... C6H6_Opt_Geom-B3LYP.gbw
Number of atoms                         ...     12
Number of basis functions               ...    270
Max core memory                         ...   4000 MB

Electric properties:
Dipole moment                           ... YES
Quadrupole moment                       ...  NO
Static polarizability (Dipole/Dipole)   ...  NO
Static polarizability (Dipole/Quad.)    ...  NO
Static polarizability (Quad./Quad.)     ...  NO
Static polarizability (Velocity)        ...  NO

Atomic electric properties:
Dipole moment                           ...  NO
Quadrupole moment                       ...  NO
Static polarizability                   ...  NO

Choice of electric origin               ... Center of mass
Position of electric origin             ...    -0.000000    -0.000000     0.000000

General magnetic properties:
Magnetizability                         ...  NO

EPR properties:
g-Tensor (aka g-matrix)                 ...  NO
Zero-Field splitting spin-orbit         ...  NO
Zero-field splitting spin-spin          ...  NO
Hyperfine couplings                     ...  NO (   0 nuclei)
Quadrupole couplings                    ...  NO (   0 nuclei)
Contact density                         ...  NO (   0 nuclei)

NMR properties:
Chemical shifts                         ...  NO (   0 nuclei)
Spin-rotation constants                 ...  NO (   0 nuclei)
Spin-spin couplings                     ...  NO (   0 nuclei,    0 pairs)

Choice of magnetic origin               ... GIAO
Position of magnetic origin             ...     0.000000     0.000000     0.000000

Properties with geometric perturbations:
SCF Hessian                             ...  NO
IR spectrum                             ...  NO
VCD spectrum                            ...  NO
X-ray spectroscopy properties:
SCF XES/XAS/RIXS spectra                ...  NO


-------------
DIPOLE MOMENT
-------------

Method             : SCF
Type of density    : Electron Density
Multiplicity       :   1
Irrep              :   0
Energy             :  -232.1860202929356944 Eh
Relativity type    : 
Basis              : AO
                                X                 Y                 Z
Electronic contribution:     -0.000002364      -0.000001672      -0.000000048
Nuclear contribution   :      0.000000115       0.000000066      -0.000000023
                        -----------------------------------------
Total Dipole Moment    :     -0.000002249      -0.000001607      -0.000000071
                        -----------------------------------------
Magnitude (a.u.)       :      0.000002765
Magnitude (Debye)      :      0.000007029



--------------------
Rotational spectrum 
--------------------
 
Rotational constants in cm-1:             0.190996             0.190986             0.095495 
Rotational constants in MHz :          5725.918830          5725.612772          2862.882899 

Dipole components along the rotational axes: 
x,y,z [a.u.] :    -0.000002    -0.000002    -0.000000 
x,y,z [Debye]:    -0.000004    -0.000006    -0.000000 

 

Dipole moment calculation done in   0.0 sec 

Maximum memory used throughout the entire PROP-calculation: 12.2 MB

--------------------------------
SUGGESTED CITATIONS FOR THIS RUN
--------------------------------

Below you find a list of papers that are relevant to this ORCA run
We neither can nor want to force you to cite these papers, but we appreciate if you do
You receive ORCA, which is the product of decades of hard work by many enthusiastic individuals, for free
The only thing we kindly ask in return is that you cite our papers,
We deeply appreciate it, if you show your appreciation for ORCA by not just citing the generic ORCA reference.

Please note that relegating all ORCA citations to the supporting information does *not* help us.
SI sections are not indexed - citations you put there will not count into any citation statistics
But we need these citations in order to attract the funding resources that allow us to do what we are doing

Therefore, if you are a happy ORCA user, please consider citing a few of the papers listed below in the main body of your paper

In addition to the list printed below, the program has created the file C6H6_Opt_Geom-B3LYP.bibtex that contains the list in bibtex format
You can import this file easily into all common literature databanks and citation aid programs


List of essential papers. We consider these as the minimum necessary citations

  1. Neese,F.
     Software update: the ORCA program system, version 5.0
     WIRES Comput. Molec. Sci., 2022 12(1)e1606
     doi.org/10.1002/wcms.1606

List of papers to cite with high priority. The work reported in these papers was absolutely
necessary for this run to complete.
Our perspective: the developers of density functionals and basis sets usually get cited in chemistry papers
Good! But without the algorithms to do something with them, the functionals or basis sets would not do anything.
Hence, in our opinion, the algorithm design and method developments papers are equally worthy of getting cited

  1. Neese,F.
     An improvement of the resolution of the identity approximation for the formation of the Coulomb matrix
     J. Comp. Chem., 2003 24(14)1740-1747
     doi.org/10.1002/jcc.10318
  2. Neese,F.; Wennmohs,F.; Hansen,A.; Becker,U.
     Efficient, approximate and parallel Hartree-Fock and hybrid DFT calculations. A 'chain-of-spheres' algorithm for the Hartree-Fock exchange
     Chem. Phys., 2009 356(1-3)98-109
     doi.org/10.1016/j.chemphys.2008.10.036
  3. Helmich-Paris,B.; de Souza,B.; Neese,F.; Izsák,R.
     An improved chain of spheres for exchange algorithm
     J. Chem. Phys., 2021 155 104109
     doi.org/doi: 10.1063/5.0058766.
  4. Neese,F.
     The SHARK Integral Generation and Digestion System
     J. Comp. Chem., 2022  1-16
     doi.org/10.1002/jcc.26942

List of suggested additional citations. These are papers that are important in the 'surrounding' of 
of this run, or papers that preceded the highly important papers. If you like your results we are grateful for a citation.

  1. Izsak,R.; Neese,F.
     An overlap fitted chain of spheres exchange method
     J. Chem. Phys., 2011 135 144105
     doi.org/10.1063/1.3646921
  2. Izsak,R.; Hansen,A.; Neese,F.
     The resolution of identity and chain of spheres approximations for the LPNO-CCSD singles Fock term
     Molec. Phys., 2012 110 2413-2417
     doi.org/10.1080/00268976.2012.687466
  3. Neese,F.
     The ORCA program system
     WIRES Comput. Molec. Sci., 2012 2(1)73-78
     doi.org/10.1002/wcms.81
  4. Izsak,R.; Neese,F.; Klopper,W.
     Robust fitting techniques in the chain of spheres approximation to the Fock exchange: The role of the complementary space
     J. Chem. Phys., 2013 139 
     doi.org/10.1063/1.4819264
  5. Neese,F.
     Software update: the ORCA program system, version 4.0
     WIRES Comput. Molec. Sci., 2018 8(1)1-6
     doi.org/10.1002/wcms.1327
  6. Neese,F.; Wennmohs,F.; Becker,U.; Riplinger,C.
     The ORCA quantum chemistry program package
     J. Chem. Phys., 2020 152 Art. No. L224108
     doi.org/10.1063/5.0004608

List of optional additional citations

  1. Neese,F.
     Approximate second-order SCF convergence for spin unrestricted wavefunctions
     Chem. Phys. Lett., 2000 325(1-3)93-98
     doi.org/10.1016/s0009-2614(00)00662-x

Timings for individual modules:

Sum of individual times          ...       68.946 sec (=   1.149 min)
Startup calculation              ...        9.340 sec (=   0.156 min)  13.5 %
SCF iterations                   ...       34.595 sec (=   0.577 min)  50.2 %
Property calculations            ...        0.964 sec (=   0.016 min)   1.4 %
SCF Gradient evaluation          ...       24.024 sec (=   0.400 min)  34.8 %
Geometry relaxation              ...        0.022 sec (=   0.000 min)   0.0 %
                             ****ORCA TERMINATED NORMALLY****
TOTAL RUN TIME: 0 days 0 hours 1 minutes 13 seconds 585 msec
