
                                 *****************
                                 * O   R   C   A *
                                 *****************

                                            #,                                       
                                            ###                                      
                                            ####                                     
                                            #####                                    
                                            ######                                   
                                           ########,                                 
                                     ,,################,,,,,                         
                               ,,#################################,,                 
                          ,,##########################################,,             
                       ,#########################################, ''#####,          
                    ,#############################################,,   '####,        
                  ,##################################################,,,,####,       
                ,###########''''           ''''###############################       
              ,#####''   ,,,,##########,,,,          '''####'''          '####       
            ,##' ,,,,###########################,,,                        '##       
           ' ,,###''''                  '''############,,,                           
         ,,##''                                '''############,,,,        ,,,,,,###''
      ,#''                                            '''#######################'''  
     '                                                          ''''####''''         
             ,#######,   #######,   ,#######,      ##                                
            ,#'     '#,  ##    ##  ,#'     '#,    #''#        ,####,   ,####,        
            ##       ##  ##   ,#'  ##            #'  '#       #'       #'  '#        
            ##       ##  #######   ##           ,######,      #####,   #    #        
            '#,     ,#'  ##    ##  '#,     ,#' ,#      #,     #,   #   #,  ,#        
             '#######'   ##     ##  '#######'  #'      '#     '####' # '####'        



                #########################################################
                #                        -***-                          #
                #          Department of theory and spectroscopy        #
                #                                                       #
                #                      Frank Neese                      #
                #                                                       #
                #     Directorship, Architecture, Infrastructure        #
                #                    SHARK, DRIVERS                     #
                #        Core code/Algorithms in most modules           #
                #                                                       #
                #        Max Planck Institute fuer Kohlenforschung      #
                #                Kaiser Wilhelm Platz 1                 #
                #                 D-45470 Muelheim/Ruhr                 #
                #                      Germany                          #
                #                                                       #
                #                  All rights reserved                  #
                #                        -***-                          #
                #########################################################


                         Program Version 6.0.1  -  RELEASE   -


 With contributions from (in alphabetic order):
[Max-Planck-Institut fuer Kohlenforschung]                               
  Daniel Aravena         : Magnetic Suceptibility                        
  Michael Atanasov       : Ab Initio Ligand Field Theory (pilot matlab implementation)
  Alexander A. Auer      : GIAO ZORA, VPT2 properties, NMR spectrum      
  Ute Becker             : All parallelization in ORCA, NUMFREQ, NUMCALC 
  Giovanni Bistoni       : ED, misc. LED, open-shell LED, HFLD           
  Martin Brehm           : Molecular dynamics                            
  Dmytro Bykov           : pre 5.0 version of the SCF Hessian            
  Marcos Casanova-Páez   : Triplet and SCS-CIS(D). UHF-(DLPNO)-IP/EA/STEOM-CCSD. UHF-CVS-IP/STEOM-CCSD   
  Vijay G. Chilkuri      : MRCI spin determinant printing, contributions to CSF-ICE 
  Pauline Colinet        : FMM embedding                                 
  Dipayan Datta          : RHF DLPNO-CCSD density                        
  Achintya Kumar Dutta   : EOM-CC, STEOM-CC                              
  Nicolas Foglia         : Exact transition moments, OPA infrastructure, MCD improvements    
  Dmitry Ganyushin       : Spin-Orbit,Spin-Spin,Magnetic field MRCI      
  Miquel Garcia-Rates    : C-PCM and meta-GGA Hessian, CCSD/C-PCM, Gaussian charge scheme 
  Tiago L. C. Gouveia    : GS-ROHF, GS-ROCIS                             
  Yang Guo               : DLPNO-NEVPT2, F12-NEVPT2, CIM, IAO-localization        
  Andreas Hansen         : Spin unrestricted coupled pair/coupled cluster methods 
  Ingolf Harden          : AUTO-CI MPn and infrastructure                
  Benjamin Helmich-Paris : MC-RPA, TRAH-(SCF,CASSCF), AVAS, COSX integrals, SCF dyn. polar. 
  Lee Huntington         : MR-EOM, pCC                                   
  Robert Izsak           : Overlap fitted RIJCOSX, COSX-SCS-MP3, EOM     
  Riya Kayal             : Wick's Theorem for AUTO-CI, AUTO-CI UHF-CCSDT 
  Emily Kempfer          : AUTO-CI, RHF CISDT and CCSDT                  
  Christian Kollmar      : KDIIS, OOCD, Brueckner-CCSD(T), CCSD density, CASPT2, CASPT2-K, improved NEVPT2 
  Axel Koslowski         : Symmetry handling                             
  Simone Kossmann        : meta-GGA functionals, TD-DFT gradient, OOMP2, (MP2 Hessian; deprecated post 5.0) 
  Lucas Lang             : DCDCAS                                        
  Marvin Lechner         : AUTO-CI (C++ implementation), FIC-MRCC        
  Spencer Leger          : CASSCF response                               
  Dagmar Lenk            : GEPOL surface, SMD, ORCA-2-JSON               
  Dimitrios Liakos       : Extrapolation schemes; Compound Job, initial MDCI parallelization 
  Dimitrios Manganas     : Further ROCIS development; embedding schemes. LFT, Crystal Embedding 
  Dimitrios Pantazis     : SARC Basis sets                               
  Anastasios Papadopoulos: AUTO-CI, single reference methods and gradients 
  Taras Petrenko         : pre 6.0 DFT Hessian and TD-DFT gradient, (ASA, deprecated), ECA, 1-Electron XAS/XES, NRVS 
  Peter Pinski           : DLPNO-MP2, DLPNO-MP2 Gradient                 
  Christoph Reimann      : Effective Core Potentials                     
  Marius Retegan         : Local ZFS, SOC                                
  Christoph Riplinger    : Optimizer, TS searches, QM/MM, DLPNO-CCSD(T), (RO)-DLPNO pert. Triples 
  Michael Roemelt        : Original ROCIS implementation                 
  Masaaki Saitow         : Open-shell DLPNO-CCSD energy and density      
  Barbara Sandhoefer     : DKH picture change effects                    
  Kantharuban Sivalingam : CASSCF convergence/infrastructure, NEVPT2 and variants, FIC-MRCI 
  Bernardo de Souza      : ESD, SOC TD-DFT                               
  Georgi L. Stoychev     : AutoAux, RI-MP2 NMR, DLPNO-MP2 response, X2C  
  Van Anh Tran           : RI-MP2 g-tensors                              
  Willem Van den Heuvel  : Paramagnetic NMR                              
  Zikuan Wang            : NOTCH, Electric field optimization            
  Frank Wennmohs         : Technical directorship and infrastructure     
  Hang Xu                : AUTO-CI-Response properties                   
                                                                         
[FACCTs GmbH]                                                            
  Markus Bursch, Miquel Garcia-Rates, Christoph Riplinger, Bernardo de Souza, Georgi L. Stoychev 
                                                                 
  APM, Basis sets (HGBS, AHGBS, def-TZVP (Ac-Lr), def2-XVPD (La-Lu)), CI-OPT, improved COSX, DLPNO-Multilevel,           
  DOCKER, DRACO, updates on ESD, GOAT, IRC, LR-CPCM, MBIS, meta-GGA TD-DFT gradient, ML-optimized integration grids, 
  MM, NACMEs, nearIR, NEB, NEB-TS, NL-DFT gradient (VV10), 2- and 3-layer-ONIOM, interface openCOSMO-RS, QMMM,   
  Crystal-QMMM, SF, symmetry and pop. for TD-DFT, r2SCAN hybrids, SOLVATOR                                   
                                                                         
[Other institutions]                                                     
  V. Asgeirsson          : NEB                                           
  Christoph Bannwarth    : sTDA-DFT, sTD-DFT, PBEh-3c, B97-3c, D3        
  Sebastian Ehlert       : rSCAN, r2SCAN, r2SCAN-3c, D4, dhf basis sets  
  Marvin Friede          : D4 for Fr, Ra, Ac-Lr                          
  Lars Goerigk           : TD-DFT with DH, B97 family of functionals     
  Stefan Grimme          : VdW corrections, initial TS optimization, DFT functionals, gCP, sTDA/sTD-DF 
  Waldemar Hujo          : DFT-NL                                        
  H. Jonsson             : NEB                                           
  Holger Kruse           : gCP                                           
  Marcel Mueller         : wB97X-3c, vDZP basis set                      
  Hagen Neugebauer       : wr2SCAN                                       
  Tobias Risthaus        : range-separated hybrid DFT                    
  Lukas Wittmann         : regularized MP2, r2SCAN double-hybrids, wr2SCAN        
                                                                         
We gratefully acknowledge several colleagues who have allowed us to      
interface, adapt or use parts of their codes:                            
  Ed Valeev, F. Pavosevic, A. Kumar             : LibInt (2-el integral package), F12 methods 
  Garnet Chan, S. Sharma, J. Yang, R. Olivares  : DMRG                   
  Ulf Ekstrom                                   : XCFun DFT Library      
  Mihaly Kallay                                 : mrcc  (arbitrary order and MRCC methods)
  Frank Weinhold                                : gennbo (NPA and NBO analysis)           
  Simon Mueller                                 : openCOSMO-RS                            
  Christopher J. Cramer and Donald G. Truhlar   : smd solvation model                     
  S Lehtola, MJT Oliveira, MAL Marques          : LibXC Library                           
  Liviu Ungur et al                             : ANISO software                          


 Your calculation uses the libint2 library for the computation of 2-el integrals
 For citations please refer to: http://libint.valeyev.net

 Your ORCA version has been built with support for libXC version: 6.2.2
 For citations please refer to: https://libxc.gitlab.io

 This ORCA versions uses:
   CBLAS   interface :  Fast vector & matrix operations
   LAPACKE interface :  Fast linear algebra routines
   Shared memory     :  Shared parallel matrices


NOTE: MaxCore=4000 MB was set to SCF,MP2,MDCI,CIPSI,MRCI and CIS
      => If you want to overwrite this, your respective input block should be placed after the MaxCore statement
Warning: RI is on but no J-basis has been assigned. Assigning Def2/J (nothing to worry about!)
================================================================================

----- Orbital basis set information -----
Your calculation utilizes the basis: def2-TZVPP
   F. Weigend and R. Ahlrichs, Phys. Chem. Chem. Phys. 7, 3297 (2005).

----- AuxJ basis set information -----
Your calculation utilizes the auxiliary basis: def2/J
   F. Weigend, Phys. Chem. Chem. Phys. 8, 1057 (2006).

================================================================================
                                        WARNINGS
                       Please study these warnings very carefully!
================================================================================


WARNING: Analytical and numerical frequencies both set to true
  ===> : Disabling Anfreq
INFO   : Checking CIS options ...

WARNING: Geometry Optimization
  ===> : Switching off AutoStart
         For restart on a previous wavefunction, please use MOREAD

WARNING: CIS/ROCIS methods need fully converged wavefunctions
  ===> : Setting SCFConvForced true
         You can overwrite this default with %scf ConvForced false 


================================================================================
                                       INPUT FILE
================================================================================
NAME = NH3_TDDFT-B3LYP.inp
|  1> ! B3LYP def2-TZVPP Opt TightOpt VeryTightSCF
|  2> 
|  3> ! Freq
|  4> ! NumFreq
|  5> 
|  6> %scf
|  7>    MaxIter 400          # Máximo de iteraciones permitidas para el SCF
|  8> end
|  9> 
| 10> %geom
| 11>    TolRMSD 1.0e-5
| 12>    TolMAXD 1.0e-4
| 13>    TolRMSG 1.0e-5
| 14>    TolMAXG 1.0e-4
| 15> end
| 16> 
| 17> %tddft
| 18>   nroots 10
| 19> end
| 20> 
| 21> %pal
| 22>    nprocs 1
| 23> end
| 24> 
| 25> 
| 26> %MaxCore 4000            # Memoria máxima por núcleo (en MB)
| 27> 
| 28> * xyz 0 1
| 29> N       0.00000000    0.00000000    0.11361500
| 30> H       0.00000000    0.93799100   -0.26510100
| 31> H      -0.81232400   -0.46899600   -0.26510100
| 32> H       0.81232400   -0.46899600   -0.26510100
| 33> **                         ****END OF INPUT****
================================================================================

                       *****************************
                       * Geometry Optimization Run *
                       *****************************

Geometry optimization settings:
Update method            Update   .... BFGS
Choice of coordinates    CoordSys .... (2022) Redundant Internals
Initial Hessian          InHess   .... Almloef's Model
Max. no of cycles        MaxIter  .... 50

Convergence Tolerances:
Energy Change            TolE     ....  1.0000e-06 Eh
Max. Gradient            TolMAXG  ....  1.0000e-04 Eh/bohr
RMS Gradient             TolRMSG  ....  1.0000e-05 Eh/bohr
Max. Displacement        TolMAXD  ....  1.0000e-04 bohr
RMS Displacement         TolRMSD  ....  1.0000e-05 bohr
Strict Convergence                .... False

------------------------------------------------------------------------------
                        ORCA OPTIMIZATION COORDINATE SETUP
------------------------------------------------------------------------------

The optimization will be done in redundant internal coordinates (2022)
Making redundant internal coordinates   ...  (2022 redundants) done
Evaluating the initial hessian          ...  (Almloef) done
Evaluating the coordinates              ...  done
Calculating the B-matrix                .... done
Calculating the G-matrix                .... done
Diagonalizing the G-matrix              .... done
The first mode is                       ....    1
The number of degrees of freedom        ....    6

    -----------------------------------------------------------------
                    Redundant Internal Coordinates


    -----------------------------------------------------------------
         Definition                    Initial Value    Approx d2E/dq
    -----------------------------------------------------------------
      1. B(H   1,N   0)                  1.0116         0.430236   
      2. B(H   2,N   0)                  1.0116         0.430236   
      3. B(H   3,N   0)                  1.0116         0.430236   
      4. A(H   1,N   0,H   3)          106.8430         0.302702   
      5. A(H   2,N   0,H   3)          106.8430         0.302702   
      6. A(H   1,N   0,H   2)          106.8430         0.302702   
      7. I(H   1,H   3,H   2,N   0)     60.9075         0.003864   
    -----------------------------------------------------------------

Number of atoms                         .... 4
Number of degrees of freedom            .... 7


         *************************************************************
         *                GEOMETRY OPTIMIZATION CYCLE   1            *
         *************************************************************
---------------------------------
CARTESIAN COORDINATES (ANGSTROEM)
---------------------------------
  N      0.000000    0.000000    0.113615
  H      0.000000    0.937991   -0.265101
  H     -0.812324   -0.468996   -0.265101
  H      0.812324   -0.468996   -0.265101

----------------------------
CARTESIAN COORDINATES (A.U.)
----------------------------
  NO LB      ZA    FRAG     MASS         X           Y           Z
   0 N     7.0000    0    14.007    0.000000    0.000000    0.214701
   1 H     1.0000    0     1.008    0.000000    1.772546   -0.500968
   2 H     1.0000    0     1.008   -1.535070   -0.886274   -0.500968
   3 H     1.0000    0     1.008    1.535070   -0.886274   -0.500968

--------------------------------
INTERNAL COORDINATES (ANGSTROEM)
--------------------------------
 N      0   0   0     0.000000000000     0.00000000     0.00000000
 H      1   0   0     1.011559649619     0.00000000     0.00000000
 H      1   2   0     1.011559853715   106.84302597     0.00000000
 H      1   2   3     1.011559853715   106.84302597   114.07643751

---------------------------
INTERNAL COORDINATES (A.U.)
---------------------------
 N      0   0   0     0.000000000000     0.00000000     0.00000000
 H      1   0   0     1.911570705905     0.00000000     0.00000000
 H      1   2   0     1.911571091591   106.84302597     0.00000000
 H      1   2   3     1.911571091591   106.84302597   114.07643751

---------------------
BASIS SET INFORMATION
---------------------
There are 2 groups of distinct atoms

 Group   1 Type N   : 11s6p2d1f contracted to 5s3p2d1f pattern {62111/411/11/1}
 Group   2 Type H   : 5s2p1d contracted to 3s2p1d pattern {311/11/1}

Atom   0N    basis set group =>   1
Atom   1H    basis set group =>   2
Atom   2H    basis set group =>   2
Atom   3H    basis set group =>   2
---------------------------------
AUXILIARY/J BASIS SET INFORMATION
---------------------------------
There are 2 groups of distinct atoms

 Group   1 Type N   : 12s5p4d2f1g contracted to 6s4p3d1f1g pattern {711111/2111/211/2/1}
 Group   2 Type H   : 5s2p1d contracted to 3s1p1d pattern {311/2/1}

Atom   0N    basis set group =>   1
Atom   1H    basis set group =>   2
Atom   2H    basis set group =>   2
Atom   3H    basis set group =>   2
------------------------------------------------------------------------------
                             ORCA STARTUP CALCULATIONS
                           -- RI-GTO INTEGRALS CHOSEN --
------------------------------------------------------------------------------
------------------------------------------------------------------------------
                   ___                                                        
                  /   \      - P O W E R E D   B Y -                         
                 /     \                                                     
                 |  |  |   _    _      __       _____    __    __             
                 |  |  |  | |  | |    /  \     |  _  \  |  |  /  |          
                  \  \/   | |  | |   /    \    | | | |  |  | /  /          
                 / \  \   | |__| |  /  /\  \   | |_| |  |  |/  /          
                |  |  |   |  __  | /  /__\  \  |    /   |      \           
                |  |  |   | |  | | |   __   |  |    \   |  |\   \          
                \     /   | |  | | |  |  |  |  | |\  \  |  | \   \       
                 \___/    |_|  |_| |__|  |__|  |_| \__\ |__|  \__/        
                                                                              
                      - O R C A' S   B I G   F R I E N D -                    
                                      &                                       
                       - I N T E G R A L  F E E D E R -                       
                                                                              
 v1 FN, 2020, v2 2021, v3 2022-2024                                           
------------------------------------------------------------------------------


----------------------
SHARK INTEGRAL PACKAGE
----------------------

Number of atoms                             ...      4
Number of basis functions                   ...     73
Number of shells                            ...     29
Maximum angular momentum                    ...      3
Integral batch strategy                     ... SHARK/LIBINT Hybrid
RI-J (if used) integral strategy            ... SPLIT-RIJ (Revised 2003 algorithm where possible)
Printlevel                                  ...      1
Contraction scheme used                     ... SEGMENTED contraction
Prescreening option                         ... SCHWARTZ
   Thresh                                   ... 1.000e-12
   Tcut                                     ... 1.000e-14
   Tpresel                                  ... 1.000e-14 
Coulomb Range Separation                    ... NOT USED
Exchange Range Separation                   ... NOT USED
Multipole approximations                    ... NOT USED
Finite Nucleus Model                        ... NOT USED
CABS basis                                  ... NOT available
Auxiliary Coulomb fitting basis             ... AVAILABLE
   # of basis functions in Aux-J            ...     82
   # of shells in Aux-J                     ...     30
   Maximum angular momentum in Aux-J        ...      4
Auxiliary J/K fitting basis                 ... NOT available
Auxiliary Correlation fitting basis         ... NOT available
Auxiliary 'external' fitting basis          ... NOT available

Checking pre-screening integrals            ... done (  0.0 sec) Dimension = 29
Check shell pair data                       ... done (  0.0 sec)
Shell pair information
Shell pair cut-off parameter TPreSel        ...   1.0e-14
Total number of shell pairs                 ...       435
Shell pairs after pre-screening             ...       435
Total number of primitive shell pairs       ...      1021
Primitive shell pairs kept                  ...       991
          la=0 lb=0:    105 shell pairs
          la=1 lb=0:    126 shell pairs
          la=1 lb=1:     45 shell pairs
          la=2 lb=0:     70 shell pairs
          la=2 lb=1:     45 shell pairs
          la=2 lb=2:     15 shell pairs
          la=3 lb=0:     14 shell pairs
          la=3 lb=1:      9 shell pairs
          la=3 lb=2:      5 shell pairs
          la=3 lb=3:      1 shell pairs

Calculating one electron integrals          ... done (  0.0 sec)
Calculating RI/J V-Matrix + Cholesky decomp.... done (  0.0 sec)
Calculating Nuclear repulsion               ... done (  0.0 sec) ENN=     11.962882715546 Eh

Diagonalization of the overlap matrix:
Smallest eigenvalue                        ... 8.866e-04
Time for diagonalization                   ...    0.001 sec
Threshold for overlap eigenvalues          ... 1.000e-07
Number of eigenvalues below threshold      ... 0
Time for construction of square roots      ...    0.001 sec
Total time needed                          ...    0.007 sec

-------------------
DFT GRID GENERATION
-------------------

General Integration Accuracy     IntAcc      ... 4.388
Radial Grid Type                 RadialGrid  ... OptM3 with GC (2021)
Angular Grid (max. ang.)         AngularGrid ... 4 (Lebedev-302)
Angular grid pruning method      GridPruning ... 4 (adaptive)
Weight generation scheme         WeightScheme... mBecke (2022)
Basis function cutoff            BFCut       ... 1.0000e-12
Integration weight cutoff        WCut        ... 1.0000e-14
Partially contracted basis set               ... off
Rotationally invariant grid construction     ... off
Angular grids for H and He will be reduced by one unit

Total number of grid points                  ...    16020
Total number of batches                      ...      252
Average number of points per batch           ...       63
Average number of grid points per atom       ...     4005

--------------------
COSX GRID GENERATION
--------------------

GRIDX 1
-------
General Integration Accuracy     IntAcc      ... 3.816
Radial Grid Type                 RadialGrid  ... OptM3 with GC (2021)
Angular Grid (max. ang.)         AngularGrid ... 1 (Lebedev-50)
Angular grid pruning method      GridPruning ... 4 (adaptive)
Weight generation scheme         WeightScheme... mBecke (2022)
Basis function cutoff            BFCut       ... 1.0000e-12
Integration weight cutoff        WCut        ... 1.0000e-14
Partially contracted basis set               ... on
Rotationally invariant grid construction     ... off
Angular grids for H and He will be reduced by one unit

Total number of grid points                  ...     2101
Total number of batches                      ...       19
Average number of points per batch           ...      110
Average number of grid points per atom       ...      525
UseSFitting                                  ... on

GRIDX 2
-------
General Integration Accuracy     IntAcc      ... 4.020
Radial Grid Type                 RadialGrid  ... OptM3 with GC (2021)
Angular Grid (max. ang.)         AngularGrid ... 2 (Lebedev-110)
Angular grid pruning method      GridPruning ... 4 (adaptive)
Weight generation scheme         WeightScheme... mBecke (2022)
Basis function cutoff            BFCut       ... 1.0000e-12
Integration weight cutoff        WCut        ... 1.0000e-14
Partially contracted basis set               ... on
Rotationally invariant grid construction     ... off
Angular grids for H and He will be reduced by one unit

Total number of grid points                  ...     4304
Total number of batches                      ...       36
Average number of points per batch           ...      119
Average number of grid points per atom       ...     1076
UseSFitting                                  ... on

GRIDX 3
-------
General Integration Accuracy     IntAcc      ... 4.338
Radial Grid Type                 RadialGrid  ... OptM3 with GC (2021)
Angular Grid (max. ang.)         AngularGrid ... 3 (Lebedev-194)
Angular grid pruning method      GridPruning ... 4 (adaptive)
Weight generation scheme         WeightScheme... mBecke (2022)
Basis function cutoff            BFCut       ... 1.0000e-12
Integration weight cutoff        WCut        ... 1.0000e-14
Partially contracted basis set               ... on
Rotationally invariant grid construction     ... off
Angular grids for H and He will be reduced by one unit

Total number of grid points                  ...     9470
Total number of batches                      ...       75
Average number of points per batch           ...      126
Average number of grid points per atom       ...     2368
UseSFitting                                  ... on
Initializing property integral containers    ... done (  0.0 sec)

SHARK setup successfully completed in   0.2 seconds

Maximum memory used throughout the entire STARTUP-calculation: 13.7 MB
-------------------------------------------------------------------------------
                                 ORCA GUESS
                   Start orbitals & Density for SCF / CASSCF
-------------------------------------------------------------------------------

------------
SCF SETTINGS
------------
Hamiltonian:
 Density Functional     Method          .... DFT(GTOs)
 Exchange Functional    Exchange        .... B88
   X-Alpha parameter    XAlpha          ....  0.666667
   Becke's b parameter  XBeta           ....  0.004200
 Correlation Functional Correlation     .... LYP
 LDA part of GGA corr.  LDAOpt          .... VWN-5
 Gradients option       PostSCFGGA      .... off
 Hybrid DFT is turned on
   Fraction HF Exchange ScalHFX         ....  0.200000
   Scaling of DF-GGA-X  ScalDFX         ....  0.720000
   Scaling of DF-GGA-C  ScalDFC         ....  0.810000
   Scaling of DF-LDA-C  ScalLDAC        ....  1.000000
   Perturbative correction              ....  0.000000
   NL short-range parameter             ....  4.800000
 RI-approximation to the Coulomb term is turned on
   Number of AuxJ basis functions       .... 82
   RIJ-COSX (HFX calculated with COS-X)).... on


General Settings:
 Integral files         IntName         .... NH3_TDDFT-B3LYP
 Hartree-Fock type      HFTyp           .... RHF
 Total Charge           Charge          ....    0
 Multiplicity           Mult            ....    1
 Number of Electrons    NEL             ....   10
 Basis Dimension        Dim             ....   73
 Nuclear Repulsion      ENuc            ....     11.9628827155 Eh

Convergence Acceleration:
 AO-DIIS                CNVDIIS         .... on
   Start iteration      DIISMaxIt       ....    12
   Startup error        DIISStart       ....  0.200000
   # of expansion vecs  DIISMaxEq       ....     5
   Bias factor          DIISBfac        ....   1.050
   Max. coefficient     DIISMaxC        ....  10.000
 MO-DIIS                CNVKDIIS        .... off
 Trust-Rad. Augm. Hess. CNVTRAH         .... auto
   Auto Start mean grad. ratio tolernc. ....  1.125000
   Auto Start start iteration           ....    50
   Auto Start num. interpolation iter.  ....    10
   Max. Number of Micro iterations      ....    24
   Max. Number of Macro iterations      .... Maxiter - #DIIS iter
   Number of Davidson start vectors     ....     2
   Converg. threshold    (grad. norm)   ....   2.000e-06
   Grad. Scal. Fac. for Micro threshold ....   0.100
   Minimum threshold for Micro iter.    ....   1.000e-02
   NR start threshold (gradient norm)   ....   1.000e-04
   Initial trust radius                 ....   0.400
   Minimum AH scaling param. (alpha)    ....   1.000
   Maximum AH scaling param. (alpha)    .... 1000.000
   Quad. conv. algorithm                .... NR
   White noise on init. David. guess    .... on
   Maximum white noise                  ....   0.010
   Pseudo random numbers                .... off
   Inactive MOs                         .... canonical
   Orbital update algorithm             .... Taylor
   Preconditioner                       .... Diag
   Full preconditioner red. dimension   ....   250
 SOSCF                  CNVSOSCF        .... on
   Start iteration      SOSCFMaxIt      ....   150
   Startup grad/error   SOSCFStart      ....  0.003300
   Hessian update       SOSCFHessUp     .... L-BFGS
 Level Shifting         CNVShift        .... on
   Level shift para.    LevelShift      ....    0.2500
   Turn off err/grad.   ShiftErr        ....    0.0010
 Zerner damping         CNVZerner       .... off
 Static damping         CNVDamp         .... on
   Fraction old density DampFac         ....    0.7000
   Max. Damping (<1)    DampMax         ....    0.9800
   Min. Damping (>=0)   DampMin         ....    0.0000
   Turn off err/grad.   DampErr         ....    0.1000

SCF Procedure:
 Maximum # iterations   MaxIter         ....   400
 SCF integral mode      SCFMode         .... Direct
   Integral package                     .... SHARK and LIBINT hybrid scheme
 Reset frequency        DirectResetFreq ....    20
 Integral Threshold     Thresh          ....  1.000e-12 Eh
 Primitive CutOff       TCut            ....  1.000e-14 Eh

Convergence Tolerance:
 Convergence Check Mode ConvCheckMode   .... Total+1el-Energy
 Convergence forced     ConvForced      .... 1
 Energy Change          TolE            ....  1.000e-09 Eh
 1-El. energy change                    ....  1.000e-06 Eh
 Orbital Gradient       TolG            ....  2.000e-06
 Orbital Rotation angle TolX            ....  2.000e-06
 DIIS Error             TolErr          ....  1.000e-08

------------------------------
INITIAL GUESS: MODEL POTENTIAL
------------------------------
Loading Hartree-Fock densities                     ... done
Calculating cut-offs                               ... done
Initializing the effective Hamiltonian             ... done
Setting up the integral package (SHARK)            ... done
Starting the Coulomb interaction                   ... done (   0.0 sec)
Making the grid                                    ... done (   0.0 sec)
Mapping shells                                     ... done
Starting the XC term evaluation                    ... done (   0.0 sec)
  promolecular density results
     # of electrons  =      9.997943079
     EX              =     -7.450425675
     EC              =     -0.311664039
     EX+EC           =     -7.762089714
Transforming the Hamiltonian                       ... done (   0.0 sec)
Diagonalizing the Hamiltonian                      ... done (   0.0 sec)
Back transforming the eigenvectors                 ... done (   0.0 sec)
Now organizing SCF variables                       ... done
                      ------------------
                      INITIAL GUESS DONE (   0.1 sec)
                      ------------------
             **** ENERGY FILE WAS UPDATED (NH3_TDDFT-B3LYP.en.tmp) ****
Finished Guess after   0.1 sec
Maximum memory used throughout the entire GUESS-calculation: 7.6 MB

-------------------------------------------------------------------------------------------
                                      ORCA LEAN-SCF
                              memory conserving SCF solver
-------------------------------------------------------------------------------------------

----------------------------------------D-I-I-S--------------------------------------------
Iteration    Energy (Eh)           Delta-E    RMSDP     MaxDP     DIISErr   Damp  Time(sec)
-------------------------------------------------------------------------------------------
               ***  Starting incremental Fock matrix formation  ***
    1    -56.4218801121763676     0.00e+00  3.61e-03  7.17e-02  3.60e-01  0.700   0.3
    2    -56.4875030266653795    -6.56e-02  2.40e-03  4.94e-02  1.57e-01  0.700   0.2
                               ***Turning on AO-DIIS***
    3    -56.5088878766327412    -2.14e-02  7.55e-04  1.16e-02  3.47e-02  0.700   0.2
    4    -56.5218869873822172    -1.30e-02  8.69e-04  1.30e-02  9.48e-03  0.000   0.2
    5    -56.5520366466880802    -3.01e-02  3.88e-04  8.02e-03  1.50e-02  0.000   0.2
                              *** Initializing SOSCF ***
---------------------------------------S-O-S-C-F--------------------------------------
Iteration    Energy (Eh)           Delta-E    RMSDP     MaxDP     MaxGrad    Time(sec)
--------------------------------------------------------------------------------------
    6    -56.5522458325702218    -2.09e-04  1.15e-04  2.06e-03  3.04e-03     0.2
               *** Restarting incremental Fock matrix formation ***
    7    -56.5522743883931867    -2.86e-05  5.80e-05  8.82e-04  2.92e-04     0.2
    8    -56.5522746902010169    -3.02e-07  1.61e-05  2.82e-04  2.28e-04     0.2
    9    -56.5522750022912533    -3.12e-07  9.51e-06  1.24e-04  4.55e-05     0.2
   10    -56.5522750215828438    -1.93e-08  1.25e-06  1.72e-05  5.29e-06     0.2
   11    -56.5522750218986232    -3.16e-10  5.91e-08  8.80e-07  4.44e-07     0.2
                 **** Energy Check signals convergence ****

               *****************************************************
               *                     SUCCESS                       *
               *           SCF CONVERGED AFTER  11 CYCLES          *
               *****************************************************

Recomputing exchange energy using gridx3       ... done (    0.264 sec)
Old exchange energy                            :     -1.532883825 Eh
New exchange energy                            :     -1.532888308 Eh
Exchange energy change after final integration :     -0.000004482 Eh
Total energy after final integration           :    -56.552279504 Eh
             **** ENERGY FILE WAS UPDATED (NH3_TDDFT-B3LYP.en.tmp) ****

----------------
TOTAL SCF ENERGY
----------------

Total Energy       :        -56.55227950421524 Eh           -1538.86576 eV

Components:
Nuclear Repulsion  :         11.96288271554579 Eh             325.52659 eV
Electronic Energy  :        -68.51515773744441 Eh           -1864.39223 eV
One Electron Energy:        -99.73677082681623 Eh           -2713.97551 eV
Two Electron Energy:         31.22161308937182 Eh             849.58328 eV

Virial components:
Potential Energy   :       -112.86609359667619 Eh           -3071.24255 eV
Kinetic Energy     :         56.31381409246095 Eh            1532.37679 eV
Virial Ratio       :          2.00423458108099

DFT components:
N(Alpha)           :        4.999998452099 electrons
N(Beta)            :        4.999998452099 electrons
N(Total)           :        9.999996904197 electrons
E(X)               :       -6.092539702902 Eh       
E(C)               :       -0.376848897642 Eh       
E(XC)              :       -6.469388600544 Eh       

---------------
SCF CONVERGENCE
---------------

  Last Energy change         ...    3.1578e-10  Tolerance :   1.0000e-09
  Last MAX-Density change    ...    8.7963e-07  Tolerance :   1.0000e-08
  Last RMS-Density change    ...    5.9118e-08  Tolerance :   1.0000e-09
  Last DIIS Error            ...    3.0427e-03  Tolerance :   1.0000e-08
  Last Orbital Gradient      ...    4.4353e-07  Tolerance :   2.0000e-06
  Last Orbital Rotation      ...    4.3662e-07  Tolerance :   2.0000e-06


----------------
ORBITAL ENERGIES
----------------

  NO   OCC          E(Eh)            E(eV) 
   0   2.0000     -14.288303      -388.8045 
   1   2.0000      -0.850657       -23.1476 
   2   2.0000      -0.460345       -12.5266 
   3   2.0000      -0.460342       -12.5265 
   4   2.0000      -0.266516        -7.2523 
   5   0.0000       0.025659         0.6982 
   6   0.0000       0.109850         2.9892 
   7   0.0000       0.109856         2.9893 
   8   0.0000       0.299541         8.1509 
   9   0.0000       0.299547         8.1511 
  10   0.0000       0.340757         9.2725 
  11   0.0000       0.431787        11.7495 
  12   0.0000       0.482090        13.1183 
  13   0.0000       0.491658        13.3787 
  14   0.0000       0.491658        13.3787 
  15   0.0000       0.569609        15.4998 
*Only the first 10 virtual orbitals were printed.

                    ********************************
                    * MULLIKEN POPULATION ANALYSIS *
                    ********************************

-----------------------
MULLIKEN ATOMIC CHARGES
-----------------------
   0 N :   -0.425575
   1 H :    0.141833
   2 H :    0.141871
   3 H :    0.141871
Sum of atomic charges:   -0.0000000

--------------------------------
MULLIKEN REDUCED ORBITAL CHARGES
--------------------------------
  0 N s       :     3.508858  s :     3.508858
      pz      :     1.741340  p :     3.900380
      px      :     1.079492
      py      :     1.079548
      dz2     :     0.001368  d :     0.015899
      dxz     :     0.005605
      dyz     :     0.005609
      dx2y2   :     0.001657
      dxy     :     0.001660
      f0      :     0.000344  f :     0.000437
      f+1     :     0.000063
      f-1     :     0.000063
      f+2     :    -0.000101
      f-2     :    -0.000101
      f+3     :     0.000000
      f-3     :     0.000168

  1 H s       :     0.786221  s :     0.786221
      pz      :     0.032410  p :     0.067017
      px      :     0.016425
      py      :     0.018182
      dz2     :     0.000690  d :     0.004929
      dxz     :     0.000084
      dyz     :     0.002117
      dx2y2   :     0.000740
      dxy     :     0.001298

  2 H s       :     0.786191  s :     0.786191
      pz      :     0.032404  p :     0.067008
      px      :     0.017741
      py      :     0.016863
      dz2     :     0.000691  d :     0.004930
      dxz     :     0.001608
      dyz     :     0.000592
      dx2y2   :     0.001159
      dxy     :     0.000880

  3 H s       :     0.786192  s :     0.786192
      pz      :     0.032404  p :     0.067008
      px      :     0.017741
      py      :     0.016863
      dz2     :     0.000691  d :     0.004929
      dxz     :     0.001608
      dyz     :     0.000592
      dx2y2   :     0.001158
      dxy     :     0.000880



                     *******************************
                     * LOEWDIN POPULATION ANALYSIS *
                     *******************************

----------------------
LOEWDIN ATOMIC CHARGES
----------------------
   0 N :    0.181101
   1 H :   -0.060366
   2 H :   -0.060367
   3 H :   -0.060367

-------------------------------
LOEWDIN REDUCED ORBITAL CHARGES
-------------------------------
  0 N s       :     2.952608  s :     2.952608
      pz      :     1.519138  p :     3.771882
      px      :     1.126366
      py      :     1.126378
      dz2     :     0.004611  d :     0.086395
      dxz     :     0.015172
      dyz     :     0.015173
      dx2y2   :     0.025719
      dxy     :     0.025720
      f0      :     0.000581  f :     0.008014
      f+1     :     0.000003
      f-1     :     0.000003
      f+2     :     0.002580
      f-2     :     0.002580
      f+3     :     0.000000
      f-3     :     0.002266

  1 H s       :     0.748089  s :     0.748089
      pz      :     0.109770  p :     0.254926
      px      :     0.052419
      py      :     0.092737
      dz2     :     0.008579  d :     0.057351
      dxz     :     0.001655
      dyz     :     0.020348
      dx2y2   :     0.011755
      dxy     :     0.015014

  2 H s       :     0.748088  s :     0.748088
      pz      :     0.109772  p :     0.254929
      px      :     0.082659
      py      :     0.062498
      dz2     :     0.008579  d :     0.057351
      dxz     :     0.015674
      dyz     :     0.006328
      dx2y2   :     0.014200
      dxy     :     0.012570

  3 H s       :     0.748088  s :     0.748088
      pz      :     0.109772  p :     0.254929
      px      :     0.082659
      py      :     0.062498
      dz2     :     0.008579  d :     0.057351
      dxz     :     0.015674
      dyz     :     0.006328
      dx2y2   :     0.014200
      dxy     :     0.012570



                      *****************************
                      * MAYER POPULATION ANALYSIS *
                      *****************************

  NA   - Mulliken gross atomic population
  ZA   - Total nuclear charge
  QA   - Mulliken gross atomic charge
  VA   - Mayer's total valence
  BVA  - Mayer's bonded valence
  FA   - Mayer's free valence

  ATOM       NA         ZA         QA         VA         BVA        FA
  0 N      7.4256     7.0000    -0.4256     3.0181     3.0181    -0.0000
  1 H      0.8582     1.0000     0.1418     1.0286     1.0286    -0.0000
  2 H      0.8581     1.0000     0.1419     1.0286     1.0286    -0.0000
  3 H      0.8581     1.0000     0.1419     1.0286     1.0286    -0.0000

  Mayer bond orders larger than 0.100000
B(  0-N ,  1-H ) :   1.0061 B(  0-N ,  2-H ) :   1.0060 B(  0-N ,  3-H ) :   1.0060 


-------
TIMINGS
-------

Total SCF time: 0 days 0 hours 0 min 2 sec 

Total time                  ....       2.808 sec
Sum of individual times     ....       2.778 sec  ( 98.9%)

SCF preparation             ....       0.053 sec  (  1.9%)
Fock matrix formation       ....       2.118 sec  ( 75.4%)
  Startup                   ....       0.019 sec  (  0.9% of F)
  Split-RI-J                ....       0.085 sec  (  4.0% of F)
  Chain of spheres X        ....       1.328 sec  ( 62.7% of F)
  XC integration            ....       0.649 sec  ( 30.6% of F)
    Basis function eval.    ....       0.181 sec  ( 27.9% of XC)
    Density eval.           ....       0.104 sec  ( 16.0% of XC)
    XC-Functional eval.     ....       0.044 sec  (  6.8% of XC)
    XC-Potential eval.      ....       0.235 sec  ( 36.2% of XC)
Diagonalization             ....       0.000 sec  (  0.0%)
Density matrix formation    ....       0.198 sec  (  7.1%)
Total Energy calculation    ....       0.070 sec  (  2.5%)
Population analysis         ....       0.031 sec  (  1.1%)
Orbital Transformation      ....       0.021 sec  (  0.7%)
Orbital Orthonormalization  ....       0.000 sec  (  0.0%)
DIIS solution               ....       0.192 sec  (  6.8%)
SOSCF solution              ....       0.094 sec  (  3.3%)
Finished LeanSCF after   2.8 sec

Maximum memory used throughout the entire LEANSCF-calculation: 7.2 MB

------------------------------------------------------------------------------
                         ORCA PROPERTY INTEGRAL CALCULATIONS
------------------------------------------------------------------------------

GBWName                                   ... NH3_TDDFT-B3LYP.gbw
Number of atoms                           ...      4
Number of basis functions                 ...     73
Max core memory                           ...   4000 MB

Dipole integrals                          ... YES
Quadrupole integrals                      ...  NO
Linear momentum integrals                 ... YES
Angular momentum integrals                ... YES
Higher moments length integrals           ...  NO
Higher moments velocity integrals         ...  NO
Kinetic energy integrals                  ...  NO
GIAO right hand sides                     ...  NO
GIAO dipole derivative integrals          ...  NO
SOC integrals                             ...  NO
EPR diamagnetic integrals (GIAO)          ...  NO
EPR gauge integrals                       ...  NO
Field gradient integrals                  ...  NO (   0 nuclei)
Spin-dipole/Fermi contact integrals       ...  NO (   0 nuclei)
Contact density integrals                 ...  NO (   0 nuclei)
Nucleus-orbit integrals                   ...  NO (   0 nuclei)
Geometric perturbations                   ...  NO (   4 nuclei)

Choice of electric origin   ... Center of mass
Position of electric origin ... (  0.0000, -0.0000,  0.0876) 
Choice of magnetic origin   ... GIAO
Position of magnetic origin ... (  0.0000,  0.0000,  0.0000) 

Calculating integrals                     ... Electric Dipole (Length)     done (  0.0 sec)
Calculating integrals                     ... Linear Momentum              done (  0.0 sec)
Calculating integrals                     ... Angular Momentum  (ElOri)    done (  0.0 sec)

Property integrals calculated in   0.1 sec

Maximum memory used throughout the entire PROPINT-calculation: 7.8 MB
------------------------------------------------------------------------------
                        ORCA TD-DFT/TDA CALCULATION
------------------------------------------------------------------------------

Input orbitals are from        ... NH3_TDDFT-B3LYP.gbw
CI-vector output               ... NH3_TDDFT-B3LYP.cis
Solver                         ... FN-2001
Tamm-Dancoff approximation     ... operative
CIS-Integral strategy          ... AO-integrals
Integral handling              ... AO integral Direct
Max. core memory used          ... 4000 MB
Reference state                ... RHF
Generation of triplets         ... off
Follow IRoot                   ... off
Number of operators            ... 1
Orbital ranges used for CIS calculation:
 Operator 0:  Orbitals   1...  4  to   5... 72
XAS localization array:
 Operator 0:  Orbitals  -1... -1

-------------------
XC-INTEGRATION GRID
-------------------

General Integration Accuracy     IntAcc      ... 3.467
Radial Grid Type                 RadialGrid  ... OptM3 with GC (2021)
Angular Grid (max. ang.)         AngularGrid ... 1 (Lebedev-50)
Angular grid pruning method      GridPruning ... 4 (adaptive)
Weight generation scheme         WeightScheme... mBecke (2022)
Basis function cutoff            BFCut       ... 1.0000e-12
Integration weight cutoff        WCut        ... 1.0000e-14
Partially contracted basis set               ... off
Rotationally invariant grid construction     ... off
Angular grids for H and He will be reduced by one unit

Total number of grid points                  ...     2268
Total number of batches                      ...       38
Average number of points per batch           ...       59
Average number of grid points per atom       ...      567

---------------------
COSX-INTEGRATION GRID
---------------------

General Integration Accuracy     IntAcc      ... 3.067
Radial Grid Type                 RadialGrid  ... OptM3 with GC (2021)
Angular Grid (max. ang.)         AngularGrid ... 1 (Lebedev-50)
Angular grid pruning method      GridPruning ... 4 (adaptive)
Weight generation scheme         WeightScheme... mBecke (2022)
Basis function cutoff            BFCut       ... 1.0000e-12
Integration weight cutoff        WCut        ... 1.0000e-14
Partially contracted basis set               ... on
Rotationally invariant grid construction     ... off
Angular grids for H and He will be reduced by one unit

Total number of grid points                  ...     1053
Total number of batches                      ...        9
Average number of points per batch           ...      117
Average number of grid points per atom       ...      263

---------------
TD-DFT XC SETUP
---------------

DFT calculation                         ... on
Name of the grid file                   ... NH3_TDDFT-B3LYP.grid_cis.tmp
RI-approximation                        ... on
Aux-basis dimension                     ... 0
Exchange functional (TD-DFT)            ... B88
   X-Alpha parameter    XAlpha (TD-DFT) ...  0.666667
   Becke's b parameter  XBeta (TD-DFT)  ...  0.004200
Correlation functional (TD-DFT)         ... LYP
 LDA part of GGA corr.  LDAOpt (TD-DFT) ... VWN-5
Hybrid DFT                              ... on
   Exchange mixing (TD-DFT)             ...  0.200
   GGA exch. scaling (TD-DFT)           ...  0.720
   GGA corr. scaling (TD-DFT)           ...  0.810

Building densities             ... done
Calculating rho(r) on the grid ... done
Building xc-kernel on the grid ... done
                    *** TD-DFT CALCULATION INITIALIZED ***

------------------------
DAVIDSON-DIAGONALIZATION
------------------------

Dimension of the eigenvalue problem            ...    272
Number of roots to be determined               ...     10
Maximum size of the expansion space            ...    100
Maximum number of iterations                   ...    100
Convergence tolerance for the residual         ...    1.000e-07
Convergence tolerance for the energies         ...    1.000e-07
Orthogonality tolerance                        ...    1.000e-14
Level Shift                                    ...    0.000e+00
Constructing the preconditioner                ... o.k.
Building the initial guess                     ... o.k.
Number of trial vectors determined             ...    100


                       ****Iteration    0****
   Time for iteration     :  TOTAL=1.4 TRAFO=1.0 RIJ=0.1 COSX=0.2 XC=0.2
   Size of expansion space: 30
   Lowest Energy          :     0.246351954236
   Maximum Energy change  :     0.524773362672 (vector 9)
   Maximum residual norm  :     0.001865242778

                       ****Iteration    1****
   Time for iteration     :  TOTAL=0.4 TRAFO=0.2 RIJ=0.0 COSX=0.1 XC=0.1
   Size of expansion space: 40
   Lowest Energy          :     0.245382229914
   Maximum Energy change  :     0.001270441412 (vector 9)
   Maximum residual norm  :     0.000016026459

                       ****Iteration    2****
   Time for iteration     :  TOTAL=0.3 TRAFO=0.1 RIJ=0.0 COSX=0.1 XC=0.1
   Size of expansion space: 50
   Lowest Energy          :     0.245375222566
   Maximum Energy change  :     0.000007007348 (vector 0)
   Maximum residual norm  :     0.000000065724

      *** CONVERGENCE OF RESIDUAL NORM REACHED ***

Storing the converged CI vectors               ... NH3_TDDFT-B3LYP.cis1

                 *** DAVIDSON DONE ***

Total time for solving the CIS problem:     6.232sec

------------------------------------
TD-DFT/TDA EXCITED STATES (SINGLETS)
------------------------------------

the weight of the individual excitations are printed if larger than 1.0e-02

STATE  1:  E=   0.245375 au      6.677 eV    53853.6 cm**-1 <S**2> =   0.000000 Mult 1
     4a ->   5a  :     0.996570 (c= -0.99828371)

STATE  2:  E=   0.324825 au      8.839 eV    71290.9 cm**-1 <S**2> =   0.000000 Mult 1
     4a ->   7a  :     0.995212 (c=  0.99760335)

STATE  3:  E=   0.324833 au      8.839 eV    71292.6 cm**-1 <S**2> =   0.000000 Mult 1
     4a ->   6a  :     0.995206 (c=  0.99759996)

STATE  4:  E=   0.441063 au     12.002 eV    96802.2 cm**-1 <S**2> =   0.000000 Mult 1
     3a ->   5a  :     0.993544 (c=  0.99676670)

STATE  5:  E=   0.441284 au     12.008 eV    96850.6 cm**-1 <S**2> =   0.000000 Mult 1
     2a ->   5a  :     0.993511 (c=  0.99675037)

STATE  6:  E=   0.505083 au     13.744 eV   110853.0 cm**-1 <S**2> =   0.000000 Mult 1
     2a ->   7a  :     0.068878 (c=  0.26244654)
     3a ->   6a  :     0.066809 (c=  0.25847361)
     4a ->   9a  :     0.856971 (c=  0.92572723)

STATE  7:  E=   0.505215 au     13.748 eV   110882.0 cm**-1 <S**2> =   0.000000 Mult 1
     2a ->   6a  :     0.071250 (c= -0.26692734)
     3a ->   7a  :     0.069845 (c=  0.26428279)
     4a ->   8a  :     0.851688 (c= -0.92286926)

STATE  8:  E=   0.513915 au     13.984 eV   112791.4 cm**-1 <S**2> =   0.000000 Mult 1
     2a ->   7a  :     0.497723 (c= -0.70549463)
     3a ->   6a  :     0.498392 (c=  0.70596876)

STATE  9:  E=   0.523424 au     14.243 eV   114878.3 cm**-1 <S**2> =   0.000000 Mult 1
     2a ->   7a  :     0.427007 (c=  0.65345756)
     3a ->   6a  :     0.428440 (c=  0.65455342)
     4a ->   9a  :     0.128269 (c= -0.35814626)

STATE 10:  E=   0.523497 au     14.245 eV   114894.4 cm**-1 <S**2> =   0.000000 Mult 1
     2a ->   6a  :     0.409433 (c= -0.63986935)
     3a ->   7a  :     0.440434 (c=  0.66365201)
     4a ->   8a  :     0.133397 (c=  0.36523553)


-----------------------------
TD-DFT/TDA-EXCITATION SPECTRA
-----------------------------

Center of mass = (  0.0000, -0.0000,  0.0876)
Generating CIS transition densities           ... done

----------------------------------------------------------------------------------------------------
                     ABSORPTION SPECTRUM VIA TRANSITION ELECTRIC DIPOLE MOMENTS    
----------------------------------------------------------------------------------------------------
     Transition      Energy     Energy  Wavelength fosc(D2)      D2        DX        DY        DZ   
                      (eV)      (cm-1)    (nm)                 (au**2)    (au)      (au)      (au)  
----------------------------------------------------------------------------------------------------
  0-1A  ->  1-1A    6.676999   53853.6   185.7   0.057123914   0.34920  -0.00000  -0.00037   0.59093
  0-1A  ->  2-1A    8.838943   71290.9   140.3   0.026675039   0.12318   0.35097   0.00098   0.00000
  0-1A  ->  3-1A    8.839155   71292.6   140.3   0.026693536   0.12326   0.00099  -0.35109  -0.00043
  0-1A  ->  4-1A   12.001947   96802.2   103.3   0.178033000   0.60547   0.77812  -0.00065   0.00000
  0-1A  ->  5-1A   12.007945   96850.6   103.3   0.178005908   0.60507  -0.00065  -0.77786  -0.00033
  0-1A  ->  6-1A   13.744015  110853.0    90.2   0.010936932   0.03248  -0.18022  -0.00002  -0.00000
  0-1A  ->  7-1A   13.747610  110882.0    90.2   0.010146109   0.03012  -0.00002   0.17355   0.00181
  0-1A  ->  8-1A   13.984349  112791.4    88.7   0.000000585   0.00000  -0.00131   0.00002   0.00000
  0-1A  ->  9-1A   14.243095  114878.3    87.0   0.205967270   0.59025   0.76828   0.00016  -0.00001
  0-1A  -> 10-1A   14.245086  114894.4    87.0   0.206388813   0.59137   0.00016  -0.76895  -0.00969

----------------------------------------------------------------------------------------------------
                     ABSORPTION SPECTRUM VIA TRANSITION VELOCITY DIPOLE MOMENTS    
----------------------------------------------------------------------------------------------------
     Transition      Energy     Energy  Wavelength fosc(P2)      P2        PX        PY        PZ   
                      (eV)      (cm-1)    (nm)                 (au**2)    (au)      (au)      (au)  
----------------------------------------------------------------------------------------------------
  0-1A  ->  1-1A    6.676999   53853.6   185.7   0.072411244   0.02665   0.00000   0.00006  -0.16325
  0-1A  ->  2-1A    8.838943   71290.9   140.3   0.009027314   0.00440  -0.06632  -0.00019   0.00000
  0-1A  ->  3-1A    8.839155   71292.6   140.3   0.009038869   0.00440  -0.00019   0.06636   0.00016
  0-1A  ->  4-1A   12.001947   96802.2   103.3   0.151660896   0.10034  -0.31676   0.00026  -0.00000
  0-1A  ->  5-1A   12.007945   96850.6   103.3   0.151555052   0.10032   0.00026   0.31673   0.00017
  0-1A  ->  6-1A   13.744015  110853.0    90.2   0.006123245   0.00464   0.06811   0.00001   0.00000
  0-1A  ->  7-1A   13.747610  110882.0    90.2   0.005618510   0.00426   0.00001  -0.06525  -0.00082
  0-1A  ->  8-1A   13.984349  112791.4    88.7   0.000000475   0.00000   0.00060  -0.00001  -0.00000
  0-1A  ->  9-1A   14.243095  114878.3    87.0   0.139710580   0.10969  -0.33120  -0.00007   0.00001
  0-1A  -> 10-1A   14.245086  114894.4    87.0   0.139849000   0.10982  -0.00007   0.33135   0.00482

------------------------------------------------------------------------------------------
                     CD SPECTRUM VIA TRANSITION ELECTRIC DIPOLE MOMENTS    
------------------------------------------------------------------------------------------
     Transition      Energy     Energy  Wavelength    R        MX        MY        MZ   
                      (eV)      (cm-1)    (nm)   (1e40*cgs)   (au)      (au)      (au)  
------------------------------------------------------------------------------------------
  0-1A  ->  1-1A    6.676999   53853.6   185.7   -0.00003  -0.00003  -0.00000   0.00000
  0-1A  ->  2-1A    8.838943   71290.9   140.3   -0.00002   0.00024  -0.08555  -0.00001
  0-1A  ->  3-1A    8.839155   71292.6   140.3    0.00004  -0.08560  -0.00024  -0.00000
  0-1A  ->  4-1A   12.001947   96802.2   103.3    0.00000   0.00005   0.05784  -0.00011
  0-1A  ->  5-1A   12.007945   96850.6   103.3   -0.00002   0.05780  -0.00005   0.00000
  0-1A  ->  6-1A   13.744015  110853.0    90.2   -0.00004  -0.00002   0.16748   0.00079
  0-1A  ->  7-1A   13.747610  110882.0    90.2    0.00009   0.16666   0.00002   0.00000
  0-1A  ->  8-1A   13.984349  112791.4    88.7    0.00004   0.00000   0.00050  -0.20028
  0-1A  ->  9-1A   14.243095  114878.3    87.0   -0.00009   0.00002  -0.08748  -0.00019
  0-1A  -> 10-1A   14.245086  114894.4    87.0    0.00004  -0.08869  -0.00002  -0.00000

------------------------------------------------------------------------------------------
                     CD SPECTRUM VIA TRANSITION VELOCITY DIPOLE MOMENTS    
------------------------------------------------------------------------------------------
     Transition      Energy     Energy  Wavelength    R        MX        MY        MZ   
                      (eV)      (cm-1)    (nm)   (1e40*cgs)   (au)      (au)      (au)  
------------------------------------------------------------------------------------------
  0-1A  ->  1-1A    6.676999   53853.6   185.7   -0.00003  -0.00003  -0.00000   0.00000
  0-1A  ->  2-1A    8.838943   71290.9   140.3   -0.00002   0.00024  -0.08555  -0.00001
  0-1A  ->  3-1A    8.839155   71292.6   140.3    0.00004  -0.08560  -0.00024  -0.00000
  0-1A  ->  4-1A   12.001947   96802.2   103.3    0.00001   0.00005   0.05784  -0.00011
  0-1A  ->  5-1A   12.007945   96850.6   103.3   -0.00002   0.05780  -0.00005   0.00000
  0-1A  ->  6-1A   13.744015  110853.0    90.2   -0.00004  -0.00002   0.16748   0.00079
  0-1A  ->  7-1A   13.747610  110882.0    90.2    0.00009   0.16666   0.00002   0.00000
  0-1A  ->  8-1A   13.984349  112791.4    88.7    0.00004   0.00000   0.00050  -0.20028
  0-1A  ->  9-1A   14.243095  114878.3    87.0   -0.00009   0.00002  -0.08748  -0.00019
  0-1A  -> 10-1A   14.245086  114894.4    87.0    0.00004  -0.08869  -0.00002  -0.00000

Total run time:        6.540 sec

           *** ORCA-CIS/TD-DFT FINISHED WITHOUT ERROR ***
-----------------------
CIS/TD-DFT TOTAL ENERGY
-----------------------

    E(SCF)  =    -56.552279504 Eh
    DE(CIS) =      0.245375223 Eh (Root  1)
    ----------------------------- ---------
    E(tot)  =    -56.306904282 Eh


------------------------
TD-DFT GRADIENT XC SETUP
------------------------

Building densities                     ... done
Calculating rho(r) on the grid         ... done
Building xc-kernel on the grid         ... done
Building xc 3rd derivative on the grid ... done
                *** TD-DFT GRADIENT CALCULATION INITIALIZED ***

--------------------------
TD-DFT/TDA RELAXED DENSITY
--------------------------

Reference wavefunction             ... RHF
State of interest                  ... 1
Basis dimension                    ... 73
DFT-XC contribution needed         ... YES
RI-approximation                   ... YES
Do Coulomb                         ... YES
Do Exchange                        ... YES
Need Hartree-Fock Exchange         ... YES
facj, facx                         ...  2.000, -0.200
Conventional                       ... NO
Range separation                   ... NO
Triplet state                      ... NO
Spin Flip                          ... NO
CIS-vectors being read from        ... NH3_TDDFT-B3LYP.cis
 => Number of Vectors found: 10
 => Orbital Window: 1...4 -> 5...72

Reading the CIS file                     ... done
Norm of the CI vector                    ... 1.000000000
Making the CIS (pseudo)densities         ... done
Making operators G(D) and Q(T)           ... (SHARK-ok)done
Transforming the Fock operators          ... done
Making the frozen-core relaxed density   ... done
Constructing the G(H) operator           ... (SHARK-ok)done
Transforming the G(H) operator           ... done
Calculating the CIS Lagrangian           ... done
Solving the Z-vector equations           ... 

Using XC Grid                  ... (NH3_TDDFT-B3LYP.grid_cpscf.tmp) 
Recalculating density on grid  ... (NH3_TDDFT-B3LYP.grho_cpscf0.tmp) done
Calculating the xc-kernel      ... (NH3_TDDFT-B3LYP.fxc_cpscf0.tmp) done

-------------------
SHARK CP-SCF DRIVER
-------------------

Dimension of the orbital basis          ...     73
Dimension of the CPSCF-problem          ...    340
Number of operators                     ...      1
Max. number of iterations               ...    128
Convergence Tolerance                   ... 3.0e-05
Number of perturbations                 ...      1
Perturbation type                       ... REAL

----------------------------
POPLE LINEAR EQUATION SOLVER
----------------------------

  ITERATION   0:   ||err||_max =   1.6984e+00 (   0.1 sec)
  ITERATION   1:   ||err||_max =   2.4113e-02 (   0.1 sec)
  ITERATION   2:   ||err||_max =   2.5448e-03 (   0.1 sec)
  ITERATION   3:   ||err||_max =   1.1754e-04 (   0.2 sec)
  ITERATION   4:   ||err||_max =   1.3167e-05 (   0.1 sec)

Finalizing the relaxed density           ... done
Storing the relaxed density              ... done
Constructing the G(Z) operator           ... (SHARK-ok)done
Adding the XC terms                      ... done
Transforming the G(Z) operator           ... done
Making the W-matrix                      ... done
Finalizing the W-matrix                  ... done
Transforming the W-matrix                ... done
Nuc. rep. gradient        (SHARK) ... done (  0.0 sec)
HCore & Overlap gradient  (SHARK) ... done (  0.0 sec)
Split-RIJ-J gradient      (SHARK) ... done (  0.1 sec)
COSX-gradient                     ... done (  2.2 sec)

                 ---------------------------
                 EXCITED STATE GRADIENT DONE
                 ---------------------------

------------------
CARTESIAN GRADIENT
------------------

   1   N   :    0.000000112    0.000963657    0.030525095
   2   H   :    0.000000116   -0.037408498   -0.010249916
   3   H   :    0.031544475    0.018173944   -0.010569837
   4   H   :   -0.031544696    0.018174198   -0.010570094

Difference to translation invariance:
           :    0.0000000072   -0.0000966989   -0.0008647516

Difference to rotation invariance:
           :   -0.0001707795    0.0000004717   -0.0000000103

Norm of the Cartesian gradient     ...    0.0728788749
RMS gradient                       ...    0.0210383190
MAX gradient                       ...    0.0374084983

------------------------------------------------------------------------------
                  RELAXED CIS/TDA DENSITY POPULATION ANALYSIS
                                   IROOT 1
------------------------------------------------------------------------------
------------------------------------------------------------------------------
                           ORCA POPULATION ANALYSIS
------------------------------------------------------------------------------
Input electron density              ... NH3_TDDFT-B3LYP.cispre.singlet.iroot1
BaseName (.gbw .S,...)              ... NH3_TDDFT-B3LYP

                    ********************************
                    * MULLIKEN POPULATION ANALYSIS *
                    ********************************

-----------------------
MULLIKEN ATOMIC CHARGES
-----------------------
   0 N :    1.026832
   1 H :   -0.343864
   2 H :   -0.341485
   3 H :   -0.341483
Sum of atomic charges:   -0.0000000

--------------------------------
MULLIKEN REDUCED ORBITAL CHARGES
--------------------------------
  0 N s       :     2.715126  s :     2.715126
      pz      :     0.855246  p :     3.254706
      px      :     1.199585
      py      :     1.199875
      dz2     :    -0.002890  d :     0.003783
      dxz     :     0.001731
      dyz     :     0.001755
      dx2y2   :     0.001598
      dxy     :     0.001589
      f0      :    -0.000138  f :    -0.000447
      f+1     :     0.000002
      f-1     :     0.000001
      f+2     :    -0.000136
      f-2     :    -0.000136
      f+3     :     0.000000
      f-3     :    -0.000040
  1 H s       :     1.325625  s :     1.325625
      pz      :     0.006455  p :     0.014707
      px      :     0.014186
      py      :    -0.005934
      dz2     :     0.000449  d :     0.003533
      dxz     :     0.000099
      dyz     :     0.000974
      dx2y2   :     0.000691
      dxy     :     0.001320
  2 H s       :     1.323153  s :     1.323153
      pz      :     0.006417  p :     0.014788
      px      :    -0.000881
      py      :     0.009251
      dz2     :     0.000460  d :     0.003544
      dxz     :     0.000749
      dyz     :     0.000318
      dx2y2   :     0.001164
      dxy     :     0.000853
  3 H s       :     1.323152  s :     1.323152
      pz      :     0.006418  p :     0.014788
      px      :    -0.000881
      py      :     0.009251
      dz2     :     0.000460  d :     0.003544
      dxz     :     0.000749
      dyz     :     0.000318
      dx2y2   :     0.001164
      dxy     :     0.000853


                     *******************************
                     * LOEWDIN POPULATION ANALYSIS *
                     *******************************

----------------------
LOEWDIN ATOMIC CHARGES
----------------------
   0 N :    0.770511
   1 H :   -0.257316
   2 H :   -0.256598
   3 H :   -0.256597

-------------------------------
LOEWDIN REDUCED ORBITAL CHARGES
-------------------------------
  0 N s       :     2.957176  s :     2.957176
      pz      :     0.821994  p :     3.192336
      px      :     1.185146
      py      :     1.185196
      dz2     :     0.008380  d :     0.072598
      dxz     :     0.009257
      dyz     :     0.009247
      dx2y2   :     0.022854
      dxy     :     0.022861
      f0      :     0.000661  f :     0.007379
      f+1     :    -0.000008
      f-1     :    -0.000008
      f+2     :     0.002355
      f-2     :     0.002356
      f+3     :     0.000000
      f-3     :     0.002022
  1 H s       :     0.928808  s :     0.928808
      pz      :     0.054902  p :     0.270825
      px      :     0.051571
      py      :     0.164352
      dz2     :     0.006975  d :     0.057683
      dxz     :     0.002062
      dyz     :     0.017669
      dx2y2   :     0.014455
      dxy     :     0.016522
  2 H s       :     0.928208  s :     0.928208
      pz      :     0.054885  p :     0.270706
      px      :     0.136058
      py      :     0.079764
      dz2     :     0.006976  d :     0.057684
      dxz     :     0.013769
      dyz     :     0.005966
      dx2y2   :     0.016004
      dxy     :     0.014968
  3 H s       :     0.928207  s :     0.928207
      pz      :     0.054885  p :     0.270706
      px      :     0.136057
      py      :     0.079764
      dz2     :     0.006976  d :     0.057684
      dxz     :     0.013769
      dyz     :     0.005966
      dx2y2   :     0.016004
      dxy     :     0.014968


                      *****************************
                      * MAYER POPULATION ANALYSIS *
                      *****************************

  NA   - Mulliken gross atomic population
  ZA   - Total nuclear charge
  QA   - Mulliken gross atomic charge
  VA   - Mayer's total valence
  BVA  - Mayer's bonded valence
  FA   - Mayer's free valence

  ATOM       NA         ZA         QA         VA         BVA        FA
  0 N      5.9732     7.0000     1.0268     0.5845     0.6524    -0.0679
  1 H      1.3439     1.0000    -0.3439     1.5620     0.9189     0.6431
  2 H      1.3415     1.0000    -0.3415     1.5620     0.9202     0.6418
  3 H      1.3415     1.0000    -0.3415     1.5620     0.9202     0.6418

  Mayer bond orders larger than 0.100000
B(  0-N ,  1-H ) :   0.2160 B(  0-N ,  2-H ) :   0.2182 B(  0-N ,  3-H ) :   0.2182 
B(  1-H ,  2-H ) :   0.3515 B(  1-H ,  3-H ) :   0.3515 B(  2-H ,  3-H ) :   0.3505 



-------
TIMINGS
-------

Total TD-DFT gradient time  ....        4.779 sec

Fock matrix formation       ....       1.017 sec  ( 21.3%)
  Coulomb formation         ....       0.715 sec  ( 70.3% of F)
  XC integration            ....       0.302 sec  ( 29.7% of F)
Z-vector equation           ....       0.773 sec  ( 16.2%)
One electron gradient       ....       0.008 sec  (  0.2%)
RI-J Coulomb gradient       ....       0.083 sec  (  1.7%)
COSX gradient               ....       0.377 sec  (  7.9%)
XC gradient                 ....       2.248 sec  ( 47.0%)

Maximum memory used throughout the entire CIS-calculation: 16.9 MB
=> NOW LEAVING ORCA_CIS

-------------------------   --------------------
FINAL SINGLE POINT ENERGY       -56.306904281649
-------------------------   --------------------

------------------------------------------------------------------------------
                         ORCA GEOMETRY RELAXATION STEP
------------------------------------------------------------------------------

Reading the OPT-File                    .... done
Getting information on internals        .... done
Copying old internal coords+grads       .... done
Making the new internal coordinates     .... (2022 redundants) done
Validating the new internal coordinates .... (2022 redundants) done
Calculating the B-matrix                .... done
Calculating the G,G- and P matrices     .... done
Transforming gradient to internals      .... done
Projecting the internal gradient        .... done
Number of atoms                         ....   4
Number of internal coordinates          ....   7
Current Energy                          ....   -56.306904282 Eh
Current gradient norm                   ....     0.072878875 Eh/bohr
Maximum allowed component of the step   ....  0.300
Current trust radius                    ....  0.300
Evaluating the initial hessian          ....  (Almloef) done
Projecting the Hessian                  .... done
Forming the augmented Hessian           .... done
Diagonalizing the augmented Hessian     .... done
Last element of RFO vector              ....  0.947901787
Lowest eigenvalues of augmented Hessian:
 -0.019963197  0.121326790  0.302702146  0.304402107  0.430235541
Length of the computed step             ....  0.336071434
Warning: the length of the step is outside the trust region - taking restricted step instead
The input lambda is                     ....     0.108475
   iter:   5  x=    0.101885  g=24348.499167 f(x)=    61.568044
   iter:  10  x=    0.053691  g=   58.177431 f(x)=     1.040127
   iter:  15  x=   -0.037737  g=    1.106167 f(x)=     0.001856
The output lambda is                    ....    -0.037765 (18 iterations)
The final length of the internal step   ....  0.300000000
Converting the step to Cartesian space:
 Initial RMS(Int)=    0.1133893419
Transforming coordinates:
 Iter   0:  RMS(Cart)=    0.0720525896 RMS(Int)=    0.1116024041
 Iter   5:  RMS(Cart)=    0.0000003479 RMS(Int)=    0.0000005233
done
Storing new coordinates                 .... done

                                .--------------------.
          ----------------------|Geometry convergence|-------------------------
          Item                value                   Tolerance       Converged
          ---------------------------------------------------------------------
          RMS gradient        0.0263543071            0.0000100000      NO
          MAX gradient        0.0319481347            0.0001000000      NO
          RMS step            0.1133893419            0.0000100000      NO
          MAX step            0.2169809629            0.0001000000      NO
          ........................................................
          Max(Bonds)      0.0350      Max(Angles)    6.31
          Max(Dihed)        0.00      Max(Improp)   12.43
          ---------------------------------------------------------------------

The optimization has not yet converged - more geometry cycles are needed


    ---------------------------------------------------------------------------
                         Redundant Internal Coordinates
                            (Angstroem and degrees)

        Definition                    Value    dE/dq     Step     New-Value
    ----------------------------------------------------------------------------
     1. B(H   1,N   0)                1.0116 -0.030923  0.0350    1.0465   
     2. B(H   2,N   0)                1.0116 -0.029886  0.0338    1.0454   
     3. B(H   3,N   0)                1.0116 -0.029886  0.0338    1.0454   
     4. A(H   1,N   0,H   3)          106.84 -0.011490    5.48    112.32   
     5. A(H   2,N   0,H   3)          106.84 -0.028890    6.31    113.15   
     6. A(H   1,N   0,H   2)          106.84 -0.011489    5.48    112.32   
     7. I(H   1,H   3,H   2,N   0)     60.91  0.031948  -12.43     48.48   
    ----------------------------------------------------------------------------

Geometry step timings:
Preparation and reading OPT file:      0.000 s ( 0.000 %)
Internal coordinates            :      0.000 s ( 0.000 %)
B/P matrices and projection     :      0.000 s ( 0.000 %)
Hessian update/contruction      :      0.001 s (33.333 %)
Making the step                 :      0.001 s (33.333 %)
Converting the step to Cartesian:      0.000 s ( 0.000 %)
Storing new data                :      0.000 s ( 0.000 %)
Checking convergence            :      0.000 s ( 0.000 %)
Final printing                  :      0.001 s (33.333 %)
Total time                      :      0.003 s

Time for energy+gradient        :     14.755 s
Time for complete geometry iter :     14.813 s

         *************************************************************
         *                GEOMETRY OPTIMIZATION CYCLE   2            *
         *************************************************************
---------------------------------
CARTESIAN COORDINATES (ANGSTROEM)
---------------------------------
  N      0.000000   -0.003547    0.054199
  H     -0.000000    0.998922   -0.246250
  H     -0.871306   -0.497688   -0.244818
  H      0.871306   -0.497689   -0.244818

----------------------------
CARTESIAN COORDINATES (A.U.)
----------------------------
  NO LB      ZA    FRAG     MASS         X           Y           Z
   0 N     7.0000    0    14.007    0.000000   -0.006702    0.102421
   1 H     1.0000    0     1.008   -0.000001    1.887689   -0.465345
   2 H     1.0000    0     1.008   -1.646530   -0.940494   -0.462639
   3 H     1.0000    0     1.008    1.646530   -0.940495   -0.462639

--------------------------------
INTERNAL COORDINATES (ANGSTROEM)
--------------------------------
 N      0   0   0     0.000000000000     0.00000000     0.00000000
 H      1   0   0     1.046524386404     0.00000000     0.00000000
 H      1   2   0     1.045352182306   111.75772812     0.00000000
 H      1   2   3     1.045352500645   111.75777748   127.64683920

---------------------------
INTERNAL COORDINATES (A.U.)
---------------------------
 N      0   0   0     0.000000000000     0.00000000     0.00000000
 H      1   0   0     1.977644482774     0.00000000     0.00000000
 H      1   2   0     1.975429338055   111.75772812     0.00000000
 H      1   2   3     1.975429939628   111.75777748   127.64683920

------------------------------------------------------------------------------
                   ___                                                        
                  /   \      - P O W E R E D   B Y -                         
                 /     \                                                     
                 |  |  |   _    _      __       _____    __    __             
                 |  |  |  | |  | |    /  \     |  _  \  |  |  /  |          
                  \  \/   | |  | |   /    \    | | | |  |  | /  /          
                 / \  \   | |__| |  /  /\  \   | |_| |  |  |/  /          
                |  |  |   |  __  | /  /__\  \  |    /   |      \           
                |  |  |   | |  | | |   __   |  |    \   |  |\   \          
                \     /   | |  | | |  |  |  |  | |\  \  |  | \   \       
                 \___/    |_|  |_| |__|  |__|  |_| \__\ |__|  \__/        
                                                                              
                      - O R C A' S   B I G   F R I E N D -                    
                                      &                                       
                       - I N T E G R A L  F E E D E R -                       
[...]
                        -----------------------------------------
Total Dipole Moment    :     -0.000000017       0.000656413      -0.000767186
                        -----------------------------------------
Magnitude (a.u.)       :      0.001009679
Magnitude (Debye)      :      0.002566401



--------------------
Rotational spectrum 
--------------------
 
Rotational constants in cm-1:             9.975301             9.873573             4.962089 
Rotational constants in MHz :        299051.986730        296002.284485        148759.698533 

Dipole components along the rotational axes: 
x,y,z [a.u.] :     0.000658    -0.000000    -0.000766 
x,y,z [Debye]:     0.001672    -0.000000    -0.001947 

 

-------------
DIPOLE MOMENT
-------------

Method             : TDA/CIS
Type of density    : Electron Density
Level              : Relaxed density
State              :   1
Multiplicity       :   1
Irrep              :   0
Energy             :     0.0000000000000000 Eh
Relativity type    : 
Basis              : AO
                                X                 Y                 Z
Electronic contribution:      0.000000009      -0.022474436       0.001180419
Nuclear contribution   :     -0.000000048       0.001777440      -0.000972374
                        -----------------------------------------
Total Dipole Moment    :     -0.000000040      -0.020696996       0.000208044
                        -----------------------------------------
Magnitude (a.u.)       :      0.020698042
Magnitude (Debye)      :      0.052610241



--------------------
Rotational spectrum 
--------------------
 
Rotational constants in cm-1:             9.975301             9.873573             4.962089 
Rotational constants in MHz :        299051.986730        296002.284485        148759.698533 

Dipole components along the rotational axes: 
x,y,z [a.u.] :    -0.020697    -0.000000     0.000172 
x,y,z [Debye]:    -0.052608    -0.000000     0.000438 

 

Dipole moment calculation done in   0.1 sec 

Maximum memory used throughout the entire PROP-calculation: 8.8 MB

----------------------------------------------------------------------------
                           ORCA NUMERICAL FREQUENCIES
----------------------------------------------------------------------------

Number of atoms                ... 4
Central differences            ... used
Number of displacements        ... 24
Numerical increment            ... 5.000e-03 bohr
IR-spectrum generation         ... on
Raman-spectrum generation      ... off
Surface Crossing Hessian       ... off

The output will be reduced. Please look at the following files:
SCF program output             ... >NH3_TDDFT-B3LYP.lastscf
Integral program output        ... >NH3_TDDFT-B3LYP.lastint
Gradient program output        ... >NH3_TDDFT-B3LYP.lastgrad
Dipole moment program output   ... >NH3_TDDFT-B3LYP.lastmom

	<< Calculating gradient on displaced geometry   1 (of  24) >>
	<< Calculating gradient on displaced geometry   2 (of  24) >>
	<< Calculating gradient on displaced geometry   3 (of  24) >>
	<< Calculating gradient on displaced geometry   4 (of  24) >>
	<< Calculating gradient on displaced geometry   5 (of  24) >>
	<< Calculating gradient on displaced geometry   6 (of  24) >>
	<< Calculating gradient on displaced geometry   7 (of  24) >>
	<< Calculating gradient on displaced geometry   8 (of  24) >>
	<< Calculating gradient on displaced geometry   9 (of  24) >>
	<< Calculating gradient on displaced geometry  10 (of  24) >>
	<< Calculating gradient on displaced geometry  11 (of  24) >>
	<< Calculating gradient on displaced geometry  12 (of  24) >>
	<< Calculating gradient on displaced geometry  13 (of  24) >>
	<< Calculating gradient on displaced geometry  14 (of  24) >>
	<< Calculating gradient on displaced geometry  15 (of  24) >>
	<< Calculating gradient on displaced geometry  16 (of  24) >>
	<< Calculating gradient on displaced geometry  17 (of  24) >>
	<< Calculating gradient on displaced geometry  18 (of  24) >>
	<< Calculating gradient on displaced geometry  19 (of  24) >>
	<< Calculating gradient on displaced geometry  20 (of  24) >>
	<< Calculating gradient on displaced geometry  21 (of  24) >>
	<< Calculating gradient on displaced geometry  22 (of  24) >>
	<< Calculating gradient on displaced geometry  23 (of  24) >>
	<< Calculating gradient on displaced geometry  24 (of  24) >>

-----------------------
VIBRATIONAL FREQUENCIES
-----------------------

Scaling factor for frequencies =  1.000000000  (already applied!)

     0:       0.00 cm**-1
     1:       0.00 cm**-1
     2:       0.00 cm**-1
     3:       0.00 cm**-1
     4:       0.00 cm**-1
     5:       0.00 cm**-1
     6:     495.65 cm**-1
     7:    1300.14 cm**-1
     8:    1313.47 cm**-1
     9:    2426.72 cm**-1
    10:    2541.41 cm**-1
    11:    2694.50 cm**-1


------------
NORMAL MODES
------------

These modes are the Cartesian displacements weighted by the diagonal matrix
M(i,i)=1/sqrt(m[i]) where m[i] is the mass of the displaced atom
Thus, these vectors are normalized but *not* orthogonal

                  0          1          2          3          4          5    
      0       0.000000   0.000000   0.000000   0.000000   0.000000   0.000000
      1       0.000000   0.000000   0.000000   0.000000   0.000000   0.000000
      2       0.000000   0.000000   0.000000   0.000000   0.000000   0.000000
      3       0.000000   0.000000   0.000000   0.000000   0.000000   0.000000
      4       0.000000   0.000000   0.000000   0.000000   0.000000   0.000000
      5       0.000000   0.000000   0.000000   0.000000   0.000000   0.000000
      6       0.000000   0.000000   0.000000   0.000000   0.000000   0.000000
      7       0.000000   0.000000   0.000000   0.000000   0.000000   0.000000
      8       0.000000   0.000000   0.000000   0.000000   0.000000   0.000000
      9       0.000000   0.000000   0.000000   0.000000   0.000000   0.000000
     10       0.000000   0.000000   0.000000   0.000000   0.000000   0.000000
     11       0.000000   0.000000   0.000000   0.000000   0.000000   0.000000
                  6          7          8          9         10         11    
      0       0.000001  -0.064710  -0.000077  -0.000000  -0.099664  -0.000002
      1      -0.001319  -0.000075   0.062665  -0.099437   0.000000   0.016441
      2      -0.123665   0.000000  -0.001521   0.000741  -0.000000   0.001213
      3      -0.000011   0.790286   0.000932  -0.000004   0.120252   0.000001
      4       0.006187  -0.000312   0.269346   0.918561  -0.000018   0.351901
      5       0.571978  -0.000000   0.006296  -0.004586   0.000001  -0.006290
      6      -0.011252   0.054017   0.369815   0.139722   0.632339  -0.594711
      7       0.006075  -0.426717  -0.570566   0.231607   0.296592  -0.290172
      8       0.573228   0.000944   0.007421  -0.002857  -0.000196  -0.005281
      9       0.011249   0.054892  -0.369681  -0.139711   0.632319   0.594736
     10       0.006063   0.428067  -0.569561   0.231596  -0.296579  -0.290185
     11       0.573228  -0.000947   0.007419  -0.002857   0.000197  -0.005281


-----------
IR SPECTRUM
-----------

 Mode   freq       eps      Int      T**2         TX        TY        TZ
       cm**-1   L/(mol*cm) km/mol    a.u.
----------------------------------------------------------------------------
  6:    495.65   0.072788  367.84  0.045827  (-0.000001  0.001133  0.214071)
  7:   1300.14   0.003721   18.80  0.000893  ( 0.029884  0.000033 -0.000000)
  8:   1313.47   0.003287   16.61  0.000781  ( 0.000035 -0.027896  0.001657)
  9:   2426.72   0.008790   44.42  0.001130  ( 0.000000  0.033617 -0.000510)
 10:   2541.41   0.008841   44.68  0.001086  ( 0.032948 -0.000000  0.000000)
 11:   2694.50   0.000294    1.48  0.000034  ( 0.000001 -0.005750 -0.000969)

* The epsilon (eps) is given for a Dirac delta lineshape.
** The dipole moment derivative (T) already includes vibrational overlap.

The first frequency considered to be a vibration is 6
The total number of vibrations considered is 6


--------------------------
THERMOCHEMISTRY AT 298.15K
--------------------------

Temperature         ...   298.15 K
Pressure            ...     1.00 atm
Total Mass          ...    17.03 AMU
Quasi RRHO          ...     True
Cut-Off Frequency   ...     1.00 cm^-1

Throughout the following assumptions are being made:
  (1) The electronic state is orbitally nondegenerate
  (2) There are no thermally accessible electronically excited states
  (3) Hindered rotations indicated by low frequency modes are not
      treated as such but are treated as vibrations and this may
      cause some error
  (4) All equations used are the standard statistical mechanics
      equations for an ideal gas
  (5) All vibrations are strictly harmonic

freq.     495.65  E(vib)   ...       0.14 
freq.    1300.14  E(vib)   ...       0.01 
freq.    1313.47  E(vib)   ...       0.01 
freq.    2426.72  E(vib)   ...       0.00 
freq.    2541.41  E(vib)   ...       0.00 
freq.    2694.50  E(vib)   ...       0.00 

------------
INNER ENERGY
------------

The inner energy is: U= E(el) + E(ZPE) + E(vib) + E(rot) + E(trans)
    E(el)   - is the total energy from the electronic structure calculation
              = E(kin-el) + E(nuc-el) + E(el-el) + E(nuc-nuc)
    E(ZPE)  - the the zero temperature vibrational energy from the frequency calculation
    E(vib)  - the the finite temperature correction to E(ZPE) due to population
              of excited vibrational states
    E(rot)  - is the rotational thermal energy
    E(trans)- is the translational thermal energy

Summary of contributions to the inner energy U:
Electronic energy                ...    -56.32842488 Eh
Zero point energy                ...      0.02454020 Eh      15.40 kcal/mol
Thermal vibrational correction   ...      0.00024931 Eh       0.16 kcal/mol
Thermal rotational correction    ...      0.00141627 Eh       0.89 kcal/mol
Thermal translational correction ...      0.00141627 Eh       0.89 kcal/mol
-----------------------------------------------------------------------
Total thermal energy                    -56.30080282 Eh


Summary of corrections to the electronic energy:
(perhaps to be used in another calculation)
Total thermal correction                  0.00308185 Eh       1.93 kcal/mol
Non-thermal (ZPE) correction              0.02454020 Eh      15.40 kcal/mol
-----------------------------------------------------------------------
Total correction                          0.02762206 Eh      17.33 kcal/mol


--------
ENTHALPY
--------

The enthalpy is H = U + kB*T
                kB is Boltzmann's constant
Total thermal energy              ...    -56.30080282 Eh 
Thermal Enthalpy correction       ...      0.00094421 Eh       0.59 kcal/mol
-----------------------------------------------------------------------
Total Enthalpy                    ...    -56.29985861 Eh


Note: Rotational entropy computed according to Herzberg 
Infrared and Raman Spectra, Chapter V,1, Van Nostrand Reinhold, 1945 
Point Group:  Cs, Symmetry Number:   1  
Rotational constants in cm-1:     9.975301     9.873573     4.962089 

Vibrational entropy computed according to the QRRHO of S. Grimme
Chem.Eur.J. 2012 18 9955 using a reference frequency of 100.0 cm-1


-------
ENTROPY
-------

The entropy contributions are T*S = T*(S(el)+S(vib)+S(rot)+S(trans))
     S(el)   - electronic entropy
     S(vib)  - vibrational entropy
     S(rot)  - rotational entropy
     S(trans)- translational entropy
The entropies will be listed as multiplied by the temperature to get
units of energy

Electronic entropy                ...      0.00000000 Eh      0.00 kcal/mol
Vibrational entropy               ...      0.00034380 Eh      0.22 kcal/mol
Rotational entropy                ...      0.00658772 Eh      4.13 kcal/mol
Translational entropy             ...      0.01636425 Eh     10.27 kcal/mol
-----------------------------------------------------------------------
Final entropy term                ...      0.02329577 Eh     14.62 kcal/mol

In case the symmetry of your molecule has not been determined correctly
or in case you have a reason to use a different symmetry number we print 
out the resulting rotational entropy values for sn=1,12:

 non-linear molecules -----------------------------------
|  sn= 1 | S(rot)=       0.00658772 Eh      4.13 kcal/mol|
|  sn= 2 | S(rot)=       0.00593326 Eh      3.72 kcal/mol|
|  sn= 3 | S(rot)=       0.00555043 Eh      3.48 kcal/mol|
|  sn= 4 | S(rot)=       0.00527881 Eh      3.31 kcal/mol|
|  sn= 5 | S(rot)=       0.00506812 Eh      3.18 kcal/mol|
|  sn= 6 | S(rot)=       0.00489597 Eh      3.07 kcal/mol|
|  sn= 7 | S(rot)=       0.00475043 Eh      2.98 kcal/mol|
|  sn= 8 | S(rot)=       0.00462435 Eh      2.90 kcal/mol|
|  sn= 9 | S(rot)=       0.00451314 Eh      2.83 kcal/mol|
|  sn=10 | S(rot)=       0.00441366 Eh      2.77 kcal/mol|
|  sn=11 | S(rot)=       0.00432367 Eh      2.71 kcal/mol|
|  sn=12 | S(rot)=       0.00424152 Eh      2.66 kcal/mol|
 linear molecules ---------------------------------------
|  Dinfh | S(rot)=       0.00381339 Eh      2.39 kcal/mol|
|  Cinfv | S(rot)=       0.00446785 Eh      2.80 kcal/mol|
 --------------------------------------------------------


-------------------
GIBBS FREE ENERGY
-------------------

The Gibbs free energy is G = H - T*S

Total enthalpy                    ...    -56.29985861 Eh 
Total entropy correction          ...     -0.02329577 Eh    -14.62 kcal/mol
-----------------------------------------------------------------------
Final Gibbs free energy         ...    -56.32315438 Eh

For completeness - the Gibbs free energy minus the electronic energy
G-E(el)                           ...      0.00527049 Eh      3.31 kcal/mol



--------------------------------
SUGGESTED CITATIONS FOR THIS RUN
--------------------------------

Below you find a list of papers that are relevant to this ORCA run
We neither can nor want to force you to cite these papers, but we appreciate if you do
You receive ORCA, which is the product of decades of hard work by many enthusiastic individuals, for free
The only thing we kindly ask in return is that you cite our papers,
We deeply appreciate it, if you show your appreciation for ORCA by not just citing the generic ORCA reference.

Please note that relegating all ORCA citations to the supporting information does *not* help us.
SI sections are not indexed - citations you put there will not count into any citation statistics
But we need these citations in order to attract the funding resources that allow us to do what we are doing

Therefore, if you are a happy ORCA user, please consider citing a few of the papers listed below in the main body of your paper

In addition to the list printed below, the program has created the file NH3_TDDFT-B3LYP.bibtex that contains the list in bibtex format
You can import this file easily into all common literature databanks and citation aid programs


List of essential papers. We consider these as the minimum necessary citations

  1. Neese,F.
     Software update: the ORCA program system, version 5.0
     WIRES Comput. Molec. Sci., 2022 12(1)e1606
     doi.org/10.1002/wcms.1606

List of papers to cite with high priority. The work reported in these papers was absolutely
necessary for this run to complete.
Our perspective: the developers of density functionals and basis sets usually get cited in chemistry papers
Good! But without the algorithms to do something with them, the functionals or basis sets would not do anything.
Hence, in our opinion, the algorithm design and method developments papers are equally worthy of getting cited

  1. Neese,F.; Olbrich,G.
     Efficient use of the resolution of the identity approximation in time-dependent density functional calculations with hybrid density functionals
     Chem. Phys. Lett., 2002 362 170-178
     doi.org/10.1016/s0009-2614(02)01053-9
  2. Neese,F.
     An improvement of the resolution of the identity approximation for the formation of the Coulomb matrix
     J. Comp. Chem., 2003 24(14)1740-1747
     doi.org/10.1002/jcc.10318
  3. Neese,F.; Wennmohs,F.; Hansen,A.; Becker,U.
     Efficient, approximate and parallel Hartree-Fock and hybrid DFT calculations. A 'chain-of-spheres' algorithm for the Hartree-Fock exchange
     Chem. Phys., 2009 356(1-3)98-109
     doi.org/10.1016/j.chemphys.2008.10.036
  4. Petrenko,T.; Kossmann,S.; Neese,F.
     Efficient time-dependent density functional theory approximations for hybrid density functionals: Analytical gradients and parallelization
     J. Chem. Phys., 2011 134 054116
     doi.org/10.1063/1.3533441
  5. Bykov,D.; Petrenko,T.; Izsak,R.; Kossmann,S.; Becker,U.; Valeev,E.; Neese,F.
     Efficient implementation of the analytic second derivatives of Hartree-Fock and hybrid DFT energies: a detailed analysis of different approximations
     Molec. Phys., 2015 113 1961-1977
     doi.org/10.1080/00268976.2015.1025114
  6. Helmich-Paris,B.; de Souza,B.; Neese,F.; Izsák,R.
     An improved chain of spheres for exchange algorithm
     J. Chem. Phys., 2021 155 104109
     doi.org/doi: 10.1063/5.0058766.
  7. Neese,F.
     The SHARK Integral Generation and Digestion System
     J. Comp. Chem., 2022  1-16
     doi.org/10.1002/jcc.26942

List of suggested additional citations. These are papers that are important in the 'surrounding' of 
of this run, or papers that preceded the highly important papers. If you like your results we are grateful for a citation.

  1. Izsak,R.; Neese,F.
     An overlap fitted chain of spheres exchange method
     J. Chem. Phys., 2011 135 144105
     doi.org/10.1063/1.3646921
  2. Izsak,R.; Hansen,A.; Neese,F.
     The resolution of identity and chain of spheres approximations for the LPNO-CCSD singles Fock term
     Molec. Phys., 2012 110 2413-2417
     doi.org/10.1080/00268976.2012.687466
  3. Neese,F.
     The ORCA program system
     WIRES Comput. Molec. Sci., 2012 2(1)73-78
     doi.org/10.1002/wcms.81
  4. Izsak,R.; Neese,F.; Klopper,W.
     Robust fitting techniques in the chain of spheres approximation to the Fock exchange: The role of the complementary space
     J. Chem. Phys., 2013 139 
     doi.org/10.1063/1.4819264
  5. Neese,F.
     Software update: the ORCA program system, version 4.0
     WIRES Comput. Molec. Sci., 2018 8(1)1-6
     doi.org/10.1002/wcms.1327
  6. Neese,F.; Wennmohs,F.; Becker,U.; Riplinger,C.
     The ORCA quantum chemistry program package
     J. Chem. Phys., 2020 152 Art. No. L224108
     doi.org/10.1063/5.0004608

List of optional additional citations

  1. Neese,F.
     Approximate second-order SCF convergence for spin unrestricted wavefunctions
     Chem. Phys. Lett., 2000 325(1-3)93-98
     doi.org/10.1016/s0009-2614(00)00662-x

Timings for individual modules:

Sum of individual times          ...      458.534 sec (=   7.642 min)
Startup calculation              ...        3.583 sec (=   0.060 min)   0.8 %
SCF iterations                   ...       32.175 sec (=   0.536 min)   7.0 %
Property integrals               ...        1.331 sec (=   0.022 min)   0.3 %
Property calculations            ...        0.120 sec (=   0.002 min)   0.0 %
CIS module                       ...      143.333 sec (=   2.389 min)  31.3 %
Geometry relaxation              ...        0.163 sec (=   0.003 min)   0.0 %
Numerical frequency calculation  ...      277.829 sec (=   4.630 min)  60.6 %
                             ****ORCA TERMINATED NORMALLY****
TOTAL RUN TIME: 0 days 0 hours 7 minutes 29 seconds 211 msec
