
                                 *****************
                                 * O   R   C   A *
                                 *****************

                                            #,                                       
                                            ###                                      
                                            ####                                     
                                            #####                                    
                                            ######                                   
                                           ########,                                 
                                     ,,################,,,,,                         
                               ,,#################################,,                 
                          ,,##########################################,,             
                       ,#########################################, ''#####,          
                    ,#############################################,,   '####,        
                  ,##################################################,,,,####,       
                ,###########''''           ''''###############################       
              ,#####''   ,,,,##########,,,,          '''####'''          '####       
            ,##' ,,,,###########################,,,                        '##       
           ' ,,###''''                  '''############,,,                           
         ,,##''                                '''############,,,,        ,,,,,,###''
      ,#''                                            '''#######################'''  
     '                                                          ''''####''''         
             ,#######,   #######,   ,#######,      ##                                
            ,#'     '#,  ##    ##  ,#'     '#,    #''#        ,####,   ,####,        
            ##       ##  ##   ,#'  ##            #'  '#       #'       #'  '#        
            ##       ##  #######   ##           ,######,      #####,   #    #        
            '#,     ,#'  ##    ##  '#,     ,#' ,#      #,     #,   #   #,  ,#        
             '#######'   ##     ##  '#######'  #'      '#     '####' # '####'        



                #########################################################
                #                        -***-                          #
                #          Department of theory and spectroscopy        #
                #                                                       #
                #                      Frank Neese                      #
                #                                                       #
                #     Directorship, Architecture, Infrastructure        #
                #                    SHARK, DRIVERS                     #
                #        Core code/Algorithms in most modules           #
                #                                                       #
                #        Max Planck Institute fuer Kohlenforschung      #
                #                Kaiser Wilhelm Platz 1                 #
                #                 D-45470 Muelheim/Ruhr                 #
                #                      Germany                          #
                #                                                       #
                #                  All rights reserved                  #
                #                        -***-                          #
                #########################################################


                         Program Version 6.0.1  -  RELEASE   -


 With contributions from (in alphabetic order):
[Max-Planck-Institut fuer Kohlenforschung]                               
  Daniel Aravena         : Magnetic Suceptibility                        
  Michael Atanasov       : Ab Initio Ligand Field Theory (pilot matlab implementation)
  Alexander A. Auer      : GIAO ZORA, VPT2 properties, NMR spectrum      
  Ute Becker             : All parallelization in ORCA, NUMFREQ, NUMCALC 
  Giovanni Bistoni       : ED, misc. LED, open-shell LED, HFLD           
  Martin Brehm           : Molecular dynamics                            
  Dmytro Bykov           : pre 5.0 version of the SCF Hessian            
  Marcos Casanova-Páez   : Triplet and SCS-CIS(D). UHF-(DLPNO)-IP/EA/STEOM-CCSD. UHF-CVS-IP/STEOM-CCSD   
  Vijay G. Chilkuri      : MRCI spin determinant printing, contributions to CSF-ICE 
  Pauline Colinet        : FMM embedding                                 
  Dipayan Datta          : RHF DLPNO-CCSD density                        
  Achintya Kumar Dutta   : EOM-CC, STEOM-CC                              
  Nicolas Foglia         : Exact transition moments, OPA infrastructure, MCD improvements    
  Dmitry Ganyushin       : Spin-Orbit,Spin-Spin,Magnetic field MRCI      
  Miquel Garcia-Rates    : C-PCM and meta-GGA Hessian, CCSD/C-PCM, Gaussian charge scheme 
  Tiago L. C. Gouveia    : GS-ROHF, GS-ROCIS                             
  Yang Guo               : DLPNO-NEVPT2, F12-NEVPT2, CIM, IAO-localization        
  Andreas Hansen         : Spin unrestricted coupled pair/coupled cluster methods 
  Ingolf Harden          : AUTO-CI MPn and infrastructure                
  Benjamin Helmich-Paris : MC-RPA, TRAH-(SCF,CASSCF), AVAS, COSX integrals, SCF dyn. polar. 
  Lee Huntington         : MR-EOM, pCC                                   
  Robert Izsak           : Overlap fitted RIJCOSX, COSX-SCS-MP3, EOM     
  Riya Kayal             : Wick's Theorem for AUTO-CI, AUTO-CI UHF-CCSDT 
  Emily Kempfer          : AUTO-CI, RHF CISDT and CCSDT                  
  Christian Kollmar      : KDIIS, OOCD, Brueckner-CCSD(T), CCSD density, CASPT2, CASPT2-K, improved NEVPT2 
  Axel Koslowski         : Symmetry handling                             
  Simone Kossmann        : meta-GGA functionals, TD-DFT gradient, OOMP2, (MP2 Hessian; deprecated post 5.0) 
  Lucas Lang             : DCDCAS                                        
  Marvin Lechner         : AUTO-CI (C++ implementation), FIC-MRCC        
  Spencer Leger          : CASSCF response                               
  Dagmar Lenk            : GEPOL surface, SMD, ORCA-2-JSON               
  Dimitrios Liakos       : Extrapolation schemes; Compound Job, initial MDCI parallelization 
  Dimitrios Manganas     : Further ROCIS development; embedding schemes. LFT, Crystal Embedding 
  Dimitrios Pantazis     : SARC Basis sets                               
  Anastasios Papadopoulos: AUTO-CI, single reference methods and gradients 
  Taras Petrenko         : pre 6.0 DFT Hessian and TD-DFT gradient, (ASA, deprecated), ECA, 1-Electron XAS/XES, NRVS 
  Peter Pinski           : DLPNO-MP2, DLPNO-MP2 Gradient                 
  Christoph Reimann      : Effective Core Potentials                     
  Marius Retegan         : Local ZFS, SOC                                
  Christoph Riplinger    : Optimizer, TS searches, QM/MM, DLPNO-CCSD(T), (RO)-DLPNO pert. Triples 
  Michael Roemelt        : Original ROCIS implementation                 
  Masaaki Saitow         : Open-shell DLPNO-CCSD energy and density      
  Barbara Sandhoefer     : DKH picture change effects                    
  Kantharuban Sivalingam : CASSCF convergence/infrastructure, NEVPT2 and variants, FIC-MRCI 
  Bernardo de Souza      : ESD, SOC TD-DFT                               
  Georgi L. Stoychev     : AutoAux, RI-MP2 NMR, DLPNO-MP2 response, X2C  
  Van Anh Tran           : RI-MP2 g-tensors                              
  Willem Van den Heuvel  : Paramagnetic NMR                              
  Zikuan Wang            : NOTCH, Electric field optimization            
  Frank Wennmohs         : Technical directorship and infrastructure     
  Hang Xu                : AUTO-CI-Response properties                   
                                                                         
[FACCTs GmbH]                                                            
  Markus Bursch, Miquel Garcia-Rates, Christoph Riplinger, Bernardo de Souza, Georgi L. Stoychev 
                                                                 
  APM, Basis sets (HGBS, AHGBS, def-TZVP (Ac-Lr), def2-XVPD (La-Lu)), CI-OPT, improved COSX, DLPNO-Multilevel,           
  DOCKER, DRACO, updates on ESD, GOAT, IRC, LR-CPCM, MBIS, meta-GGA TD-DFT gradient, ML-optimized integration grids, 
  MM, NACMEs, nearIR, NEB, NEB-TS, NL-DFT gradient (VV10), 2- and 3-layer-ONIOM, interface openCOSMO-RS, QMMM,   
  Crystal-QMMM, SF, symmetry and pop. for TD-DFT, r2SCAN hybrids, SOLVATOR                                   
                                                                         
[Other institutions]                                                     
  V. Asgeirsson          : NEB                                           
  Christoph Bannwarth    : sTDA-DFT, sTD-DFT, PBEh-3c, B97-3c, D3        
  Sebastian Ehlert       : rSCAN, r2SCAN, r2SCAN-3c, D4, dhf basis sets  
  Marvin Friede          : D4 for Fr, Ra, Ac-Lr                          
  Lars Goerigk           : TD-DFT with DH, B97 family of functionals     
  Stefan Grimme          : VdW corrections, initial TS optimization, DFT functionals, gCP, sTDA/sTD-DF 
  Waldemar Hujo          : DFT-NL                                        
  H. Jonsson             : NEB                                           
  Holger Kruse           : gCP                                           
  Marcel Mueller         : wB97X-3c, vDZP basis set                      
  Hagen Neugebauer       : wr2SCAN                                       
  Tobias Risthaus        : range-separated hybrid DFT                    
  Lukas Wittmann         : regularized MP2, r2SCAN double-hybrids, wr2SCAN        
                                                                         
We gratefully acknowledge several colleagues who have allowed us to      
interface, adapt or use parts of their codes:                            
  Ed Valeev, F. Pavosevic, A. Kumar             : LibInt (2-el integral package), F12 methods 
  Garnet Chan, S. Sharma, J. Yang, R. Olivares  : DMRG                   
  Ulf Ekstrom                                   : XCFun DFT Library      
  Mihaly Kallay                                 : mrcc  (arbitrary order and MRCC methods)
  Frank Weinhold                                : gennbo (NPA and NBO analysis)           
  Simon Mueller                                 : openCOSMO-RS                            
  Christopher J. Cramer and Donald G. Truhlar   : smd solvation model                     
  S Lehtola, MJT Oliveira, MAL Marques          : LibXC Library                           
  Liviu Ungur et al                             : ANISO software                          


 Your calculation uses the libint2 library for the computation of 2-el integrals
 For citations please refer to: http://libint.valeyev.net

 Your ORCA version has been built with support for libXC version: 6.2.2
 For citations please refer to: https://libxc.gitlab.io

 This ORCA versions uses:
   CBLAS   interface :  Fast vector & matrix operations
   LAPACKE interface :  Fast linear algebra routines
   Shared memory     :  Shared parallel matrices


NOTE: MaxCore=4000 MB was set to SCF,MP2,MDCI,CIPSI,MRCI and CIS
      => If you want to overwrite this, your respective input block should be placed after the MaxCore statement
Warning: RI is on but no J-basis has been assigned. Assigning Def2/J (nothing to worry about!)
================================================================================

----- Orbital basis set information -----
Your calculation utilizes the basis: def2-TZVPP
   F. Weigend and R. Ahlrichs, Phys. Chem. Chem. Phys. 7, 3297 (2005).

----- AuxJ basis set information -----
Your calculation utilizes the auxiliary basis: def2/J
   F. Weigend, Phys. Chem. Chem. Phys. 8, 1057 (2006).

================================================================================
                                        WARNINGS
                       Please study these warnings very carefully!
================================================================================


WARNING: Analytical and numerical frequencies both set to true
  ===> : Disabling Anfreq
INFO   : Checking CIS options ...

WARNING: Geometry Optimization
  ===> : Switching off AutoStart
         For restart on a previous wavefunction, please use MOREAD

WARNING: CIS/ROCIS methods need fully converged wavefunctions
  ===> : Setting SCFConvForced true
         You can overwrite this default with %scf ConvForced false 


================================================================================
                                       INPUT FILE
================================================================================
NAME = HCl_TDDFT-HFS.inp
|  1> ! HFS def2-TZVPP Opt TightOpt VeryTightSCF
|  2> 
|  3> ! Freq
|  4> ! NumFreq
|  5> 
|  6> %scf
|  7>    MaxIter 400          # Máximo de iteraciones permitidas para el SCF
|  8> end
|  9> 
| 10> %geom
| 11>    TolRMSD 1.0e-5
| 12>    TolMAXD 1.0e-4
| 13>    TolRMSG 1.0e-5
| 14>    TolMAXG 1.0e-4
| 15> end
| 16> 
| 17> 
| 18> %tddft
| 19>   nroots 10
| 20> end
| 21> 
| 22> %pal
| 23>    nprocs 1
| 24> end
| 25> 
| 26> 
| 27> %MaxCore 4000            # Memoria máxima por núcleo (en MB)
| 28> 
| 29> * xyz 0 1
| 30> Cl     0.000000    0.000000    0.074144
| 31> H      0.000000    0.000000   -1.208014
| 32> **                         ****END OF INPUT****
================================================================================

                       *****************************
                       * Geometry Optimization Run *
                       *****************************

Geometry optimization settings:
Update method            Update   .... BFGS
Choice of coordinates    CoordSys .... (2022) Redundant Internals
Initial Hessian          InHess   .... Almloef's Model
Max. no of cycles        MaxIter  .... 50

Convergence Tolerances:
Energy Change            TolE     ....  1.0000e-06 Eh
Max. Gradient            TolMAXG  ....  1.0000e-04 Eh/bohr
RMS Gradient             TolRMSG  ....  1.0000e-05 Eh/bohr
Max. Displacement        TolMAXD  ....  1.0000e-04 bohr
RMS Displacement         TolRMSD  ....  1.0000e-05 bohr
Strict Convergence                .... False

------------------------------------------------------------------------------
                        ORCA OPTIMIZATION COORDINATE SETUP
------------------------------------------------------------------------------

The optimization will be done in redundant internal coordinates (2022)
Making redundant internal coordinates   ...  (2022 redundants) done
Evaluating the initial hessian          ...  (Almloef) done
Evaluating the coordinates              ...  done
Calculating the B-matrix                .... done
Calculating the G-matrix                .... done
Diagonalizing the G-matrix              .... done
The first mode is                       ....    0
The number of degrees of freedom        ....    1

    -----------------------------------------------------------------
                    Redundant Internal Coordinates


    -----------------------------------------------------------------
         Definition                    Initial Value    Approx d2E/dq
    -----------------------------------------------------------------
      1. B(H   1,Cl  0)                  1.2822         0.398881   
    -----------------------------------------------------------------

Number of atoms                         .... 2
Number of degrees of freedom            .... 1


         *************************************************************
         *                GEOMETRY OPTIMIZATION CYCLE   1            *
         *************************************************************
---------------------------------
CARTESIAN COORDINATES (ANGSTROEM)
---------------------------------
  Cl     0.000000    0.000000    0.074144
  H      0.000000    0.000000   -1.208014

----------------------------
CARTESIAN COORDINATES (A.U.)
----------------------------
  NO LB      ZA    FRAG     MASS         X           Y           Z
   0 Cl   17.0000    0    35.453    0.000000    0.000000    0.140112
   1 H     1.0000    0     1.008    0.000000    0.000000   -2.282816

--------------------------------
INTERNAL COORDINATES (ANGSTROEM)
--------------------------------
 Cl     0   0   0     0.000000000000     0.00000000     0.00000000
 H      1   0   0     1.282158000000     0.00000000     0.00000000

---------------------------
INTERNAL COORDINATES (A.U.)
---------------------------
 Cl     0   0   0     0.000000000000     0.00000000     0.00000000
 H      1   0   0     2.422927480416     0.00000000     0.00000000

---------------------
BASIS SET INFORMATION
---------------------
There are 2 groups of distinct atoms

 Group   1 Type Cl  : 14s9p3d1f contracted to 5s5p3d1f pattern {73211/51111/111/1}
 Group   2 Type H   : 5s2p1d contracted to 3s2p1d pattern {311/11/1}

Atom   0Cl   basis set group =>   1
Atom   1H    basis set group =>   2
---------------------------------
AUXILIARY/J BASIS SET INFORMATION
---------------------------------
There are 2 groups of distinct atoms

 Group   1 Type Cl  : 14s5p5d2f1g contracted to 8s4p3d1f1g pattern {71111111/2111/311/2/1}
 Group   2 Type H   : 5s2p1d contracted to 3s1p1d pattern {311/2/1}

Atom   0Cl   basis set group =>   1
Atom   1H    basis set group =>   2
------------------------------------------------------------------------------
                             ORCA STARTUP CALCULATIONS
                           -- RI-GTO INTEGRALS CHOSEN --
------------------------------------------------------------------------------
------------------------------------------------------------------------------
                   ___                                                        
                  /   \      - P O W E R E D   B Y -                         
                 /     \                                                     
                 |  |  |   _    _      __       _____    __    __             
                 |  |  |  | |  | |    /  \     |  _  \  |  |  /  |          
                  \  \/   | |  | |   /    \    | | | |  |  | /  /          
                 / \  \   | |__| |  /  /\  \   | |_| |  |  |/  /          
                |  |  |   |  __  | /  /__\  \  |    /   |      \           
                |  |  |   | |  | | |   __   |  |    \   |  |\   \          
                \     /   | |  | | |  |  |  |  | |\  \  |  | \   \       
                 \___/    |_|  |_| |__|  |__|  |_| \__\ |__|  \__/        
                                                                              
                      - O R C A' S   B I G   F R I E N D -                    
                                      &                                       
                       - I N T E G R A L  F E E D E R -                       
                                                                              
 v1 FN, 2020, v2 2021, v3 2022-2024                                           
------------------------------------------------------------------------------


----------------------
SHARK INTEGRAL PACKAGE
----------------------

Number of atoms                             ...      2
Number of basis functions                   ...     56
Number of shells                            ...     20
Maximum angular momentum                    ...      3
Integral batch strategy                     ... SHARK/LIBINT Hybrid
RI-J (if used) integral strategy            ... SPLIT-RIJ (Revised 2003 algorithm where possible)
Printlevel                                  ...      1
Contraction scheme used                     ... SEGMENTED contraction
Prescreening option                         ... SCHWARTZ
   Thresh                                   ... 1.000e-12
   Tcut                                     ... 1.000e-14
   Tpresel                                  ... 1.000e-14 
Coulomb Range Separation                    ... NOT USED
Exchange Range Separation                   ... NOT USED
Multipole approximations                    ... NOT USED
Finite Nucleus Model                        ... NOT USED
CABS basis                                  ... NOT available
Auxiliary Coulomb fitting basis             ... AVAILABLE
   # of basis functions in Aux-J            ...     62
   # of shells in Aux-J                     ...     22
   Maximum angular momentum in Aux-J        ...      4
Auxiliary J/K fitting basis                 ... NOT available
Auxiliary Correlation fitting basis         ... NOT available
Auxiliary 'external' fitting basis          ... NOT available

Checking pre-screening integrals            ... done (  0.0 sec) Dimension = 20
Check shell pair data                       ... done (  0.0 sec)
Shell pair information
Shell pair cut-off parameter TPreSel        ...   1.0e-14
Total number of shell pairs                 ...       210
Shell pairs after pre-screening             ...       210
Total number of primitive shell pairs       ...       668
Primitive shell pairs kept                  ...       654
          la=0 lb=0:     36 shell pairs
          la=1 lb=0:     56 shell pairs
          la=1 lb=1:     28 shell pairs
          la=2 lb=0:     32 shell pairs
          la=2 lb=1:     28 shell pairs
          la=2 lb=2:     10 shell pairs
          la=3 lb=0:      8 shell pairs
          la=3 lb=1:      7 shell pairs
          la=3 lb=2:      4 shell pairs
          la=3 lb=3:      1 shell pairs

Calculating one electron integrals          ... done (  0.0 sec)
Calculating RI/J V-Matrix + Cholesky decomp.... done (  0.0 sec)
Calculating Nuclear repulsion               ... done (  0.0 sec) ENN=      7.016305744768 Eh

Diagonalization of the overlap matrix:
Smallest eigenvalue                        ... 4.016e-03
Time for diagonalization                   ...    0.000 sec
Threshold for overlap eigenvalues          ... 1.000e-07
Number of eigenvalues below threshold      ... 0
Time for construction of square roots      ...    0.001 sec
Total time needed                          ...    0.006 sec

-------------------
DFT GRID GENERATION
-------------------

General Integration Accuracy     IntAcc      ... 4.388
Radial Grid Type                 RadialGrid  ... OptM3 with GC (2021)
Angular Grid (max. ang.)         AngularGrid ... 4 (Lebedev-302)
Angular grid pruning method      GridPruning ... 4 (adaptive)
Weight generation scheme         WeightScheme... mBecke (2022)
Basis function cutoff            BFCut       ... 1.0000e-12
Integration weight cutoff        WCut        ... 1.0000e-14
Partially contracted basis set               ... off
Rotationally invariant grid construction     ... off
Angular grids for H and He will be reduced by one unit

Total number of grid points                  ...    10685
Total number of batches                      ...      168
Average number of points per batch           ...       63
Average number of grid points per atom       ...     5343
Initializing property integral containers    ... done (  0.0 sec)

SHARK setup successfully completed in   0.1 seconds

Maximum memory used throughout the entire STARTUP-calculation: 15.1 MB
-------------------------------------------------------------------------------
                                 ORCA GUESS
                   Start orbitals & Density for SCF / CASSCF
-------------------------------------------------------------------------------

------------
SCF SETTINGS
------------
Hamiltonian:
 Density Functional     Method          .... DFT(GTOs)
 Exchange Functional    Exchange        .... Slater
   X-Alpha parameter    XAlpha          ....  0.666667
 Correlation Functional Correlation     .... No Correlation
 Gradients option       PostSCFGGA      .... off
 RI-approximation to the Coulomb term is turned on
   Number of AuxJ basis functions       .... 62


General Settings:
 Integral files         IntName         .... HCl_TDDFT-HFS
 Hartree-Fock type      HFTyp           .... RHF
 Total Charge           Charge          ....    0
 Multiplicity           Mult            ....    1
 Number of Electrons    NEL             ....   18
 Basis Dimension        Dim             ....   56
 Nuclear Repulsion      ENuc            ....      7.0163057448 Eh

Convergence Acceleration:
 AO-DIIS                CNVDIIS         .... on
   Start iteration      DIISMaxIt       ....    12
   Startup error        DIISStart       ....  0.200000
   # of expansion vecs  DIISMaxEq       ....     5
   Bias factor          DIISBfac        ....   1.050
   Max. coefficient     DIISMaxC        ....  10.000
 MO-DIIS                CNVKDIIS        .... off
 Trust-Rad. Augm. Hess. CNVTRAH         .... auto
   Auto Start mean grad. ratio tolernc. ....  1.125000
   Auto Start start iteration           ....    50
   Auto Start num. interpolation iter.  ....    10
   Max. Number of Micro iterations      ....    24
   Max. Number of Macro iterations      .... Maxiter - #DIIS iter
   Number of Davidson start vectors     ....     2
   Converg. threshold    (grad. norm)   ....   2.000e-06
   Grad. Scal. Fac. for Micro threshold ....   0.100
   Minimum threshold for Micro iter.    ....   1.000e-02
   NR start threshold (gradient norm)   ....   1.000e-04
   Initial trust radius                 ....   0.400
   Minimum AH scaling param. (alpha)    ....   1.000
   Maximum AH scaling param. (alpha)    .... 1000.000
   Quad. conv. algorithm                .... NR
   White noise on init. David. guess    .... on
   Maximum white noise                  ....   0.010
   Pseudo random numbers                .... off
   Inactive MOs                         .... canonical
   Orbital update algorithm             .... Taylor
   Preconditioner                       .... Diag
   Full preconditioner red. dimension   ....   250
 SOSCF                  CNVSOSCF        .... on
   Start iteration      SOSCFMaxIt      ....   150
   Startup grad/error   SOSCFStart      ....  0.003300
   Hessian update       SOSCFHessUp     .... L-BFGS
 Level Shifting         CNVShift        .... on
   Level shift para.    LevelShift      ....    0.2500
   Turn off err/grad.   ShiftErr        ....    0.0010
 Zerner damping         CNVZerner       .... off
 Static damping         CNVDamp         .... on
   Fraction old density DampFac         ....    0.7000
   Max. Damping (<1)    DampMax         ....    0.9800
   Min. Damping (>=0)   DampMin         ....    0.0000
   Turn off err/grad.   DampErr         ....    0.1000

SCF Procedure:
 Maximum # iterations   MaxIter         ....   400
 SCF integral mode      SCFMode         .... Direct
   Integral package                     .... SHARK and LIBINT hybrid scheme
 Reset frequency        DirectResetFreq ....    20
 Integral Threshold     Thresh          ....  1.000e-12 Eh
 Primitive CutOff       TCut            ....  1.000e-14 Eh

Convergence Tolerance:
 Convergence Check Mode ConvCheckMode   .... Total+1el-Energy
 Convergence forced     ConvForced      .... 1
 Energy Change          TolE            ....  1.000e-09 Eh
 1-El. energy change                    ....  1.000e-06 Eh
 Orbital Gradient       TolG            ....  2.000e-06
 Orbital Rotation angle TolX            ....  2.000e-06
 DIIS Error             TolErr          ....  1.000e-08

------------------------------
INITIAL GUESS: MODEL POTENTIAL
------------------------------
Loading Hartree-Fock densities                     ... done
Calculating cut-offs                               ... done
Initializing the effective Hamiltonian             ... done
Setting up the integral package (SHARK)            ... done
Starting the Coulomb interaction                   ... done (   0.0 sec)
Making the grid                                    ... done (   0.0 sec)
Mapping shells                                     ... done
Starting the XC term evaluation                    ... done (   0.0 sec)
  promolecular density results
     # of electrons  =     17.999586661
     EX              =    -25.664975466
     EC              =      0.000000000
     EX+EC           =    -25.664975466
Transforming the Hamiltonian                       ... done (   0.0 sec)
Diagonalizing the Hamiltonian                      ... done (   0.0 sec)
Back transforming the eigenvectors                 ... done (   0.0 sec)
Now organizing SCF variables                       ... done
                      ------------------
                      INITIAL GUESS DONE (   0.0 sec)
                      ------------------
             **** ENERGY FILE WAS UPDATED (HCl_TDDFT-HFS.en.tmp) ****
Finished Guess after   0.1 sec
Maximum memory used throughout the entire GUESS-calculation: 7.3 MB

-------------------------------------------------------------------------------------------
                                      ORCA LEAN-SCF
                              memory conserving SCF solver
-------------------------------------------------------------------------------------------

----------------------------------------D-I-I-S--------------------------------------------
Iteration    Energy (Eh)           Delta-E    RMSDP     MaxDP     DIISErr   Damp  Time(sec)
-------------------------------------------------------------------------------------------
               ***  Starting incremental Fock matrix formation  ***
    1    -432.2271940433467989     0.00e+00  1.61e-02  2.62e-01  1.16e+00  0.700   0.1
Warning: op=0 Small HOMO/LUMO gap (   0.092) - skipping pre-diagonalization
         Will do a full diagonalization
    2    -432.4925664182393348    -2.65e-01  9.50e-03  1.63e-01  6.10e-01  0.700   0.1
    3    -432.5924554556795556    -9.99e-02  3.30e-03  4.52e-02  3.13e-01  0.700   0.0
                               ***Turning on AO-DIIS***
    4    -432.6515916686807941    -5.91e-02  1.55e-03  2.41e-02  1.66e-01  0.700   0.1
    5    -432.6950411380199171    -4.34e-02  1.07e-03  1.90e-02  1.14e-01  0.700   0.1
    6    -432.7250503877728534    -3.00e-02  6.45e-04  9.78e-03  8.05e-02  0.700   0.1
    7    -432.7459738249676775    -2.09e-02  1.36e-03  1.92e-02  5.68e-02  0.000   0.0
                              *** Initializing SOSCF ***
---------------------------------------S-O-S-C-F--------------------------------------
Iteration    Energy (Eh)           Delta-E    RMSDP     MaxDP     MaxGrad    Time(sec)
--------------------------------------------------------------------------------------
    8    -432.7945709264943730    -4.86e-02  1.46e-04  2.19e-03  2.25e-03     0.1
               *** Restarting incremental Fock matrix formation ***
    9    -432.7945760796686727    -5.15e-06  5.66e-05  9.21e-04  1.81e-04     0.1
   10    -432.7945759257178793     1.54e-07  2.25e-05  2.92e-04  2.92e-04     0.1
   11    -432.7945763634148761    -4.38e-07  6.58e-06  9.60e-05  2.55e-05     0.1
   12    -432.7945763650093909    -1.59e-09  3.38e-06  5.78e-05  1.99e-05     0.1
   13    -432.7945763676837032    -2.67e-09  1.65e-06  2.19e-05  8.59e-06     0.1
   14    -432.7945763678031312    -1.19e-10  8.05e-07  1.34e-05  6.49e-06     0.1
                 **** Energy Check signals convergence ****

               *****************************************************
               *                     SUCCESS                       *
               *           SCF CONVERGED AFTER  14 CYCLES          *
               *****************************************************

             **** ENERGY FILE WAS UPDATED (HCl_TDDFT-HFS.en.tmp) ****

----------------
TOTAL SCF ENERGY
----------------

Total Energy       :       -432.79457636780313 Eh          -11776.93915 eV

Components:
Nuclear Repulsion  :          7.01630574476781 Eh             190.92339 eV
Electronic Energy  :       -439.81088211257094 Eh          -11967.86254 eV
One Electron Energy:       -637.96498956033156 Eh          -17359.90993 eV
Two Electron Energy:        198.15410744776062 Eh            5392.04739 eV

Virial components:
Potential Energy   :       -876.08078631207195 Eh          -23839.37017 eV
Kinetic Energy     :        443.28620994426876 Eh           12062.43101 eV
Virial Ratio       :          1.97633214536995

DFT components:
N(Alpha)           :        0.000000000000 electrons
N(Beta)            :        0.000000000000 electrons
N(Total)           :        0.000000000000 electrons
E(X)               :        0.000000000000 Eh       
E(C)               :        0.000000000000 Eh       
E(XC)              :        0.000000000000 Eh       

---------------
SCF CONVERGENCE
---------------

  Last Energy change         ...    1.1943e-10  Tolerance :   1.0000e-09
  Last MAX-Density change    ...    1.3396e-05  Tolerance :   1.0000e-08
  Last RMS-Density change    ...    8.0461e-07  Tolerance :   1.0000e-09
  Last DIIS Error            ...    2.2465e-03  Tolerance :   1.0000e-08
  Last Orbital Gradient      ...    6.4929e-06  Tolerance :   2.0000e-06
  Last Orbital Rotation      ...    7.9944e-06  Tolerance :   2.0000e-06


----------------
ORBITAL ENERGIES
----------------

  NO   OCC          E(Eh)            E(eV) 
   0   2.0000     -95.388761     -2595.6602 
   1   2.0000      -7.849984      -213.6089 
   2   2.0000      -5.714553      -155.5009 
   3   2.0000      -5.705178      -155.2458 
   4   2.0000      -5.705178      -155.2458 
   5   2.0000      -0.405358       -11.0304 
   6   2.0000      -0.097192        -2.6447 
   7   2.0000       0.018908         0.5145 
   8   2.0000       0.018908         0.5145 
   9   0.0000       0.166161         4.5215 
  10   0.0000       0.380135        10.3440 
  11   0.0000       0.532372        14.4866 
  12   0.0000       0.532534        14.4910 
  13   0.0000       0.532534        14.4910 
  14   0.0000       0.579318        15.7641 
  15   0.0000       0.579318        15.7641 
  16   0.0000       0.654973        17.8227 
  17   0.0000       0.654973        17.8227 
  18   0.0000       0.824793        22.4438 
  19   0.0000       0.955942        26.0125 
*Only the first 10 virtual orbitals were printed.

                    ********************************
                    * MULLIKEN POPULATION ANALYSIS *
                    ********************************

-----------------------
MULLIKEN ATOMIC CHARGES
-----------------------
   0 Cl:   -0.124438
   1 H :    0.124438
Sum of atomic charges:   -0.0000000

--------------------------------
MULLIKEN REDUCED ORBITAL CHARGES
--------------------------------
  0 Cls       :     5.873935  s :     5.873935
      pz      :     3.273398  p :    11.224185
      px      :     3.975393
      py      :     3.975393
      dz2     :     0.019934  d :     0.024330
      dxz     :     0.002198
      dyz     :     0.002198
      dx2y2   :     0.000000
      dxy     :     0.000000
      f0      :     0.001563  f :     0.001988
      f+1     :     0.000212
      f-1     :     0.000212
      f+2     :     0.000000
      f-2     :     0.000000
      f+3     :     0.000000
      f-3     :     0.000000

  1 H s       :     0.819005  s :     0.819005
      pz      :     0.012458  p :     0.055160
      px      :     0.021351
      py      :     0.021351
      dz2     :    -0.000293  d :     0.001398
      dxz     :     0.000845
      dyz     :     0.000845
      dx2y2   :     0.000000
      dxy     :     0.000000



                     *******************************
                     * LOEWDIN POPULATION ANALYSIS *
                     *******************************

----------------------
LOEWDIN ATOMIC CHARGES
----------------------
   0 Cl:    0.279308
   1 H :   -0.279308

-------------------------------
LOEWDIN REDUCED ORBITAL CHARGES
-------------------------------
  0 Cls       :     5.540254  s :     5.540254
      pz      :     3.342697  p :    11.148940
      px      :     3.903121
      py      :     3.903121
      dz2     :     0.027832  d :     0.028517
      dxz     :     0.000343
      dyz     :     0.000343
      dx2y2   :     0.000000
      dxy     :     0.000000
      f0      :     0.002723  f :     0.002980
      f+1     :     0.000129
      f-1     :     0.000129
      f+2     :     0.000000
      f-2     :     0.000000
      f+3     :     0.000000
      f-3     :     0.000000

  1 H s       :     0.936003  s :     0.936003
      pz      :     0.136949  p :     0.309284
      px      :     0.086167
      py      :     0.086167
      dz2     :     0.013542  d :     0.034021
      dxz     :     0.010239
      dyz     :     0.010239
      dx2y2   :     0.000000
      dxy     :     0.000000



                      *****************************
                      * MAYER POPULATION ANALYSIS *
                      *****************************

  NA   - Mulliken gross atomic population
  ZA   - Total nuclear charge
  QA   - Mulliken gross atomic charge
  VA   - Mayer's total valence
  BVA  - Mayer's bonded valence
  FA   - Mayer's free valence

  ATOM       NA         ZA         QA         VA         BVA        FA
  0 Cl    17.1244    17.0000    -0.1244     1.0481     1.0481    -0.0000
  1 H      0.8756     1.0000     0.1244     1.0481     1.0481    -0.0000

  Mayer bond orders larger than 0.100000
B(  0-Cl,  1-H ) :   1.0481 

-------
TIMINGS
-------

Total SCF time: 0 days 0 hours 0 min 0 sec 

Total time                  ....       0.903 sec
Sum of individual times     ....       0.871 sec  ( 96.5%)

SCF preparation             ....       0.035 sec  (  3.9%)
Fock matrix formation       ....       0.137 sec  ( 15.2%)
  Startup                   ....       0.016 sec  ( 11.7% of F)
  Split-RI-J                ....       0.087 sec  ( 63.5% of F)
Diagonalization             ....       0.000 sec  (  0.0%)
Density matrix formation    ....       0.248 sec  ( 27.5%)
Total Energy calculation    ....       0.113 sec  ( 12.5%)
Population analysis         ....       0.015 sec  (  1.7%)
Orbital Transformation      ....       0.022 sec  (  2.4%)
Orbital Orthonormalization  ....       0.000 sec  (  0.0%)
DIIS solution               ....       0.180 sec  ( 19.9%)
SOSCF solution              ....       0.121 sec  ( 13.4%)
Finished LeanSCF after   0.9 sec

Maximum memory used throughout the entire LEANSCF-calculation: 4.7 MB

------------------------------------------------------------------------------
                         ORCA PROPERTY INTEGRAL CALCULATIONS
------------------------------------------------------------------------------

GBWName                                   ... HCl_TDDFT-HFS.gbw
Number of atoms                           ...      2
Number of basis functions                 ...     56
Max core memory                           ...   4000 MB

Dipole integrals                          ... YES
Quadrupole integrals                      ...  NO
Linear momentum integrals                 ... YES
Angular momentum integrals                ... YES
Higher moments length integrals           ...  NO
Higher moments velocity integrals         ...  NO
Kinetic energy integrals                  ...  NO
GIAO right hand sides                     ...  NO
GIAO dipole derivative integrals          ...  NO
SOC integrals                             ...  NO
EPR diamagnetic integrals (GIAO)          ...  NO
EPR gauge integrals                       ...  NO
Field gradient integrals                  ...  NO (   0 nuclei)
Spin-dipole/Fermi contact integrals       ...  NO (   0 nuclei)
Contact density integrals                 ...  NO (   0 nuclei)
Nucleus-orbit integrals                   ...  NO (   0 nuclei)
Geometric perturbations                   ...  NO (   2 nuclei)

Choice of electric origin   ... Center of mass
Position of electric origin ... (  0.0000,  0.0000,  0.0731) 
Choice of magnetic origin   ... GIAO
Position of magnetic origin ... (  0.0000,  0.0000,  0.0000) 

Calculating integrals                     ... Electric Dipole (Length)     done (  0.0 sec)
Calculating integrals                     ... Linear Momentum              done (  0.0 sec)
Calculating integrals                     ... Angular Momentum  (ElOri)    done (  0.0 sec)

Property integrals calculated in   0.1 sec

Maximum memory used throughout the entire PROPINT-calculation: 7.4 MB
------------------------------------------------------------------------------
                        ORCA TD-DFT/TDA CALCULATION
------------------------------------------------------------------------------

Input orbitals are from        ... HCl_TDDFT-HFS.gbw
CI-vector output               ... HCl_TDDFT-HFS.cis
Solver                         ... FN-2001
Tamm-Dancoff approximation     ... operative
CIS-Integral strategy          ... AO-integrals
Integral handling              ... AO integral Direct
Max. core memory used          ... 4000 MB
Reference state                ... RHF
Generation of triplets         ... off
Follow IRoot                   ... off
Number of operators            ... 1
Orbital ranges used for CIS calculation:
 Operator 0:  Orbitals   5...  8  to   9... 55
XAS localization array:
 Operator 0:  Orbitals  -1... -1

-------------------
XC-INTEGRATION GRID
-------------------

General Integration Accuracy     IntAcc      ... 3.467
Radial Grid Type                 RadialGrid  ... OptM3 with GC (2021)
Angular Grid (max. ang.)         AngularGrid ... 1 (Lebedev-50)
Angular grid pruning method      GridPruning ... 4 (adaptive)
Weight generation scheme         WeightScheme... mBecke (2022)
Basis function cutoff            BFCut       ... 1.0000e-12
Integration weight cutoff        WCut        ... 1.0000e-14
Partially contracted basis set               ... off
Rotationally invariant grid construction     ... off
Angular grids for H and He will be reduced by one unit

Total number of grid points                  ...     2385
Total number of batches                      ...       38
Average number of points per batch           ...       62
Average number of grid points per atom       ...     1193

---------------
TD-DFT XC SETUP
---------------

DFT calculation                         ... on
Name of the grid file                   ... HCl_TDDFT-HFS.grid_cis.tmp
RI-approximation                        ... on
Aux-basis dimension                     ... 0
Exchange functional (TD-DFT)            ... Slater
   X-Alpha parameter    XAlpha (TD-DFT) ...  0.666667
Correlation functional (TD-DFT)         ... No Correlation

Building densities             ... done
Calculating rho(r) on the grid ... done
Building xc-kernel on the grid ... done
                    *** TD-DFT CALCULATION INITIALIZED ***

------------------------
DAVIDSON-DIAGONALIZATION
------------------------

Dimension of the eigenvalue problem            ...    188
Number of roots to be determined               ...     10
Maximum size of the expansion space            ...    100
Maximum number of iterations                   ...    100
Convergence tolerance for the residual         ...    1.000e-07
Convergence tolerance for the energies         ...    1.000e-07
Orthogonality tolerance                        ...    1.000e-14
Level Shift                                    ...    0.000e+00
Constructing the preconditioner                ... o.k.
Building the initial guess                     ... o.k.
Number of trial vectors determined             ...    100


                       ****Iteration    0****
   Time for iteration     :  TOTAL=0.3 TRAFO=0.3 RIJ=0.0
   Size of expansion space: 30
   Lowest Energy          :     0.162489151795
   Maximum Energy change  :     0.548080284715 (vector 9)
   Maximum residual norm  :     0.005202545909

                       ****Iteration    1****
   Time for iteration     :  TOTAL=0.1 TRAFO=0.1 RIJ=0.0
   Size of expansion space: 39
   Lowest Energy          :     0.160563106312
   Maximum Energy change  :     0.002956465758 (vector 8)
   Maximum residual norm  :     0.000022544592

                       ****Iteration    2****
   Time for iteration     :  TOTAL=0.1 TRAFO=0.1 RIJ=0.0
   Size of expansion space: 48
   Lowest Energy          :     0.160562197981
   Maximum Energy change  :     0.000017713525 (vector 7)
   Maximum residual norm  :     0.000000054770

      *** CONVERGENCE OF RESIDUAL NORM REACHED ***

Storing the converged CI vectors               ... HCl_TDDFT-HFS.cis1

                 *** DAVIDSON DONE ***

Total time for solving the CIS problem:     3.439sec

------------------------------------
TD-DFT/TDA EXCITED STATES (SINGLETS)
------------------------------------

the weight of the individual excitations are printed if larger than 1.0e-02

STATE  1:  E=   0.160562 au      4.369 eV    35239.3 cm**-1 <S**2> =   0.000000 Mult 1
     7a ->   9a  :     0.996725 (c= -0.99836104)

STATE  2:  E=   0.160562 au      4.369 eV    35239.3 cm**-1 <S**2> =   0.000000 Mult 1
     8a ->   9a  :     0.996725 (c=  0.99836106)

STATE  3:  E=   0.311405 au      8.474 eV    68345.5 cm**-1 <S**2> =   0.000000 Mult 1
     6a ->   9a  :     0.958773 (c= -0.97916960)
     6a ->  10a  :     0.013994 (c=  0.11829815)

STATE  4:  E=   0.387467 au     10.544 eV    85039.1 cm**-1 <S**2> =   0.000000 Mult 1
     7a ->  10a  :     0.970577 (c=  0.98517850)

STATE  5:  E=   0.387467 au     10.544 eV    85039.1 cm**-1 <S**2> =   0.000000 Mult 1
     8a ->  10a  :     0.970576 (c= -0.98517829)

STATE  6:  E=   0.513626 au     13.976 eV   112727.9 cm**-1 <S**2> =   0.000000 Mult 1
     7a ->  12a  :     0.141385 (c= -0.37601179)
     7a ->  13a  :     0.358615 (c=  0.59884483)
     8a ->  12a  :     0.358615 (c=  0.59884483)
     8a ->  13a  :     0.141385 (c=  0.37601179)

STATE  7:  E=   0.529742 au     14.415 eV   116264.8 cm**-1 <S**2> =   0.000000 Mult 1
     7a ->  11a  :     0.972615 (c=  0.98621237)

STATE  8:  E=   0.529742 au     14.415 eV   116264.8 cm**-1 <S**2> =   0.000000 Mult 1
     8a ->  11a  :     0.972614 (c= -0.98621188)

STATE  9:  E=   0.541753 au     14.742 eV   118901.0 cm**-1 <S**2> =   0.000000 Mult 1
     5a ->  10a  :     0.010694 (c= -0.10341305)
     6a ->  10a  :     0.699020 (c= -0.83607429)
     6a ->  11a  :     0.050878 (c=  0.22556088)
     7a ->  12a  :     0.049450 (c=  0.22237392)
     7a ->  13a  :     0.019496 (c=  0.13962752)
     7a ->  15a  :     0.041221 (c=  0.20302996)
     8a ->  12a  :     0.019496 (c=  0.13962752)
     8a ->  13a  :     0.049450 (c= -0.22237392)
     8a ->  14a  :     0.041221 (c= -0.20302996)

STATE 10:  E=   0.545391 au     14.841 eV   119699.5 cm**-1 <S**2> =   0.000000 Mult 1
     7a ->  12a  :     0.497881 (c= -0.70560702)
     8a ->  13a  :     0.497881 (c= -0.70560702)


-----------------------------
TD-DFT/TDA-EXCITATION SPECTRA
-----------------------------

Center of mass = (  0.0000,  0.0000,  0.0731)
Generating CIS transition densities           ... done

----------------------------------------------------------------------------------------------------
                     ABSORPTION SPECTRUM VIA TRANSITION ELECTRIC DIPOLE MOMENTS    
----------------------------------------------------------------------------------------------------
     Transition      Energy     Energy  Wavelength fosc(D2)      D2        DX        DY        DZ   
                      (eV)      (cm-1)    (nm)                 (au**2)    (au)      (au)      (au)  
----------------------------------------------------------------------------------------------------
  0-1A  ->  1-1A    4.369120   35239.3   283.8   0.031746624   0.29658   0.47204  -0.27159   0.00000
  0-1A  ->  2-1A    4.369120   35239.3   283.8   0.031746736   0.29658   0.27159   0.47204   0.00000
  0-1A  ->  3-1A    8.473759   68345.5   146.3   0.427380110   2.05864   0.00000  -0.00000  -1.43480
  0-1A  ->  4-1A   10.543508   85039.1   117.6   0.041046139   0.15890   0.34552  -0.19879  -0.00000
  0-1A  ->  5-1A   10.543508   85039.1   117.6   0.041045604   0.15890   0.19879   0.34552   0.00000
  0-1A  ->  6-1A   13.976474  112727.9    88.7   0.000000000   0.00000   0.00000  -0.00000   0.00000
  0-1A  ->  7-1A   14.414999  116264.8    86.0   0.043438715   0.12300   0.30399  -0.17490   0.00000
  0-1A  ->  8-1A   14.414999  116264.8    86.0   0.043438578   0.12300   0.17490   0.30399  -0.00000
  0-1A  ->  9-1A   14.741841  118901.0    84.1   0.033728741   0.09339   0.00000  -0.00000  -0.30559
  0-1A  -> 10-1A   14.840849  119699.5    83.5   0.000000000   0.00000  -0.00000  -0.00000   0.00000

----------------------------------------------------------------------------------------------------
                     ABSORPTION SPECTRUM VIA TRANSITION VELOCITY DIPOLE MOMENTS    
----------------------------------------------------------------------------------------------------
     Transition      Energy     Energy  Wavelength fosc(P2)      P2        PX        PY        PZ   
                      (eV)      (cm-1)    (nm)                 (au**2)    (au)      (au)      (au)  
----------------------------------------------------------------------------------------------------
  0-1A  ->  1-1A    4.369120   35239.3   283.8   0.078771055   0.01897  -0.11939   0.06869  -0.00000
  0-1A  ->  2-1A    4.369120   35239.3   283.8   0.078768887   0.01897  -0.06869  -0.11939   0.00000
  0-1A  ->  3-1A    8.473759   68345.5   146.3   0.310423067   0.14500  -0.00000  -0.00000   0.38079
  0-1A  ->  4-1A   10.543508   85039.1   117.6   0.011424304   0.00664  -0.07063   0.04064   0.00000
  0-1A  ->  5-1A   10.543508   85039.1   117.6   0.011426111   0.00664  -0.04064  -0.07064  -0.00000
  0-1A  ->  6-1A   13.976474  112727.9    88.7   0.000000000   0.00000   0.00000  -0.00000  -0.00000
  0-1A  ->  7-1A   14.414999  116264.8    86.0   0.007021607   0.00558  -0.06474   0.03725  -0.00000
  0-1A  ->  8-1A   14.414999  116264.8    86.0   0.007024760   0.00558  -0.03726  -0.06476  -0.00000
  0-1A  ->  9-1A   14.741841  118901.0    84.1   0.023891539   0.01941  -0.00000   0.00000   0.13934
  0-1A  -> 10-1A   14.840849  119699.5    83.5   0.000000000   0.00000   0.00000  -0.00000  -0.00000

------------------------------------------------------------------------------------------
                     CD SPECTRUM VIA TRANSITION ELECTRIC DIPOLE MOMENTS    
------------------------------------------------------------------------------------------
     Transition      Energy     Energy  Wavelength    R        MX        MY        MZ   
                      (eV)      (cm-1)    (nm)   (1e40*cgs)   (au)      (au)      (au)  
------------------------------------------------------------------------------------------
  0-1A  ->  1-1A    4.369120   35239.3   283.8    0.00000   0.05569   0.09679  -0.00000
  0-1A  ->  2-1A    4.369120   35239.3   283.8   -0.00000  -0.09679   0.05569  -0.00000
  0-1A  ->  3-1A    8.473759   68345.5   146.3   -0.00000  -0.00000   0.00000  -0.00000
  0-1A  ->  4-1A   10.543508   85039.1   117.6    0.00000  -0.06596  -0.11465  -0.00000
  0-1A  ->  5-1A   10.543508   85039.1   117.6   -0.00000   0.11465  -0.06596  -0.00000
  0-1A  ->  6-1A   13.976474  112727.9    88.7   -0.00000   0.00000   0.00000   0.00000
  0-1A  ->  7-1A   14.414999  116264.8    86.0   -0.00000  -0.01387  -0.02411   0.00000
  0-1A  ->  8-1A   14.414999  116264.8    86.0    0.00000   0.02410  -0.01387   0.00000
  0-1A  ->  9-1A   14.741841  118901.0    84.1    0.00000   0.00000  -0.00000   0.00000
  0-1A  -> 10-1A   14.840849  119699.5    83.5    0.00000  -0.00000  -0.00000  -0.00000

------------------------------------------------------------------------------------------
                     CD SPECTRUM VIA TRANSITION VELOCITY DIPOLE MOMENTS    
------------------------------------------------------------------------------------------
     Transition      Energy     Energy  Wavelength    R        MX        MY        MZ   
                      (eV)      (cm-1)    (nm)   (1e40*cgs)   (au)      (au)      (au)  
------------------------------------------------------------------------------------------
  0-1A  ->  1-1A    4.369120   35239.3   283.8   -0.00000   0.05569   0.09679  -0.00000
  0-1A  ->  2-1A    4.369120   35239.3   283.8    0.00000  -0.09679   0.05569  -0.00000
  0-1A  ->  3-1A    8.473759   68345.5   146.3   -0.00000  -0.00000   0.00000  -0.00000
  0-1A  ->  4-1A   10.543508   85039.1   117.6    0.00000  -0.06596  -0.11465  -0.00000
  0-1A  ->  5-1A   10.543508   85039.1   117.6   -0.00000   0.11465  -0.06596  -0.00000
  0-1A  ->  6-1A   13.976474  112727.9    88.7   -0.00000   0.00000   0.00000   0.00000
  0-1A  ->  7-1A   14.414999  116264.8    86.0   -0.00000  -0.01387  -0.02411   0.00000
  0-1A  ->  8-1A   14.414999  116264.8    86.0    0.00000   0.02410  -0.01387   0.00000
  0-1A  ->  9-1A   14.741841  118901.0    84.1    0.00000   0.00000  -0.00000   0.00000
  0-1A  -> 10-1A   14.840849  119699.5    83.5    0.00000  -0.00000  -0.00000  -0.00000

Total run time:        3.706 sec

           *** ORCA-CIS/TD-DFT FINISHED WITHOUT ERROR ***
-----------------------
CIS/TD-DFT TOTAL ENERGY
-----------------------

    E(SCF)  =   -432.794576368 Eh
    DE(CIS) =      0.160562198 Eh (Root  1)
    ----------------------------- ---------
    E(tot)  =   -432.634014170 Eh


------------------------
TD-DFT GRADIENT XC SETUP
------------------------

Building densities                     ... done
Calculating rho(r) on the grid         ... done
Building xc-kernel on the grid         ... done
Building xc 3rd derivative on the grid ... done
                *** TD-DFT GRADIENT CALCULATION INITIALIZED ***

--------------------------
TD-DFT/TDA RELAXED DENSITY
--------------------------

Reference wavefunction             ... RHF
State of interest                  ... 1
Basis dimension                    ... 56
DFT-XC contribution needed         ... YES
RI-approximation                   ... YES
Do Coulomb                         ... YES
Do Exchange                        ... NO
Need Hartree-Fock Exchange         ... NO
facj, facx                         ...  2.000,  0.000
Conventional                       ... NO
Range separation                   ... NO
Triplet state                      ... NO
Spin Flip                          ... NO
CIS-vectors being read from        ... HCl_TDDFT-HFS.cis
 => Number of Vectors found: 10
 => Orbital Window: 5...8 -> 9...55

Reading the CIS file                     ... done
Norm of the CI vector                    ... 1.000000000
Making the CIS (pseudo)densities         ... done
Making operators G(D) and Q(T)           ... (SHARK-ok)done
Transforming the Fock operators          ... done
Making the frozen-core relaxed density   ... done
Constructing the G(H) operator           ... (SHARK-ok)done
Transforming the G(H) operator           ... done
Calculating the CIS Lagrangian           ... done
Solving the Z-vector equations           ... 


-------------------
SHARK CP-SCF DRIVER
-------------------

Dimension of the orbital basis          ...     56
Dimension of the CPSCF-problem          ...    423
Number of operators                     ...      1
Max. number of iterations               ...    128
Convergence Tolerance                   ... 3.0e-05
Number of perturbations                 ...      1
Perturbation type                       ... REAL

----------------------------
POPLE LINEAR EQUATION SOLVER
----------------------------

  ITERATION   0:   ||err||_max =   1.7819e+00 (   0.1 sec)
  ITERATION   1:   ||err||_max =   1.4612e-02 (   0.1 sec)
  ITERATION   2:   ||err||_max =   5.9218e-03 (   0.0 sec)
  ITERATION   3:   ||err||_max =   1.0391e-03 (   0.1 sec)
  ITERATION   4:   ||err||_max =   1.6675e-04 (   0.1 sec)
  ITERATION   5:   ||err||_max =   1.5013e-05 (   0.1 sec)

Finalizing the relaxed density           ... done
Storing the relaxed density              ... done
Constructing the G(Z) operator           ... (SHARK-ok)done
Adding the XC terms                      ... done
Transforming the G(Z) operator           ... done
Making the W-matrix                      ... done
Finalizing the W-matrix                  ... done
Transforming the W-matrix                ... done
Nuc. rep. gradient        (SHARK) ... done (  0.0 sec)
HCore & Overlap gradient  (SHARK) ... done (  0.0 sec)
Split-RIJ-J gradient      (SHARK) ... done (  0.1 sec)

                 ---------------------------
                 EXCITED STATE GRADIENT DONE
                 ---------------------------

------------------
CARTESIAN GRADIENT
------------------

   1   Cl  :   -0.000000000    0.000000000   -0.229033005
   2   H   :    0.000000000   -0.000000000    0.229033005

Difference to translation invariance:
           :   -0.0000000000    0.0000000000    0.0000000000

Difference to rotation invariance:
           :   -0.0000000000   -0.0000000000    0.0000000000

Norm of the Cartesian gradient     ...    0.3239015825
RMS gradient                       ...    0.1322322673
MAX gradient                       ...    0.2290330054

------------------------------------------------------------------------------
                  RELAXED CIS/TDA DENSITY POPULATION ANALYSIS
                                   IROOT 1
------------------------------------------------------------------------------
------------------------------------------------------------------------------
                           ORCA POPULATION ANALYSIS
------------------------------------------------------------------------------
Input electron density              ... HCl_TDDFT-HFS.cispre.singlet.iroot1
BaseName (.gbw .S,...)              ... HCl_TDDFT-HFS

                    ********************************
                    * MULLIKEN POPULATION ANALYSIS *
                    ********************************

-----------------------
MULLIKEN ATOMIC CHARGES
-----------------------
   0 Cl:    0.688674
   1 H :   -0.688674
Sum of atomic charges:   -0.0000000

--------------------------------
MULLIKEN REDUCED ORBITAL CHARGES
--------------------------------
  0 Cls       :     5.789114  s :     5.789114
      pz      :     3.539706  p :    10.530447
      px      :     3.248062
      py      :     3.742679
      dz2     :    -0.010105  d :    -0.008545
      dxz     :     0.000355
      dyz     :     0.000686
      dx2y2   :     0.000259
      dxy     :     0.000259
      f0      :     0.000314  f :     0.000310
      f+1     :    -0.000090
      f-1     :     0.000019
      f+2     :     0.000034
      f-2     :     0.000034
      f+3     :     0.000000
      f-3     :    -0.000000
  1 H s       :     1.783546  s :     1.783546
      pz      :    -0.103250  p :    -0.094221
      px      :     0.001523
      py      :     0.007506
      dz2     :    -0.002032  d :    -0.000651
      dxz     :     0.000589
      dyz     :     0.000793
      dx2y2   :    -0.000000
      dxy     :    -0.000000


                     *******************************
                     * LOEWDIN POPULATION ANALYSIS *
                     *******************************

----------------------
LOEWDIN ATOMIC CHARGES
----------------------
   0 Cl:    0.948775
   1 H :   -0.948775

-------------------------------
LOEWDIN REDUCED ORBITAL CHARGES
-------------------------------
  0 Cls       :     5.601661  s :     5.601661
      pz      :     3.522962  p :    10.403607
      px      :     3.202035
      py      :     3.678610
      dz2     :     0.042685  d :     0.043439
      dxz     :     0.000168
      dyz     :     0.000068
      dx2y2   :     0.000259
      dxy     :     0.000259
      f0      :     0.001871  f :     0.002518
      f+1     :     0.000311
      f-1     :     0.000270
      f+2     :     0.000033
      f-2     :     0.000033
      f+3     :     0.000000
      f-3     :    -0.000000
  1 H s       :     1.499519  s :     1.499519
      pz      :     0.310303  p :     0.413950
      px      :     0.040687
      py      :     0.062960
      dz2     :     0.018290  d :     0.035306
      dxz     :     0.007239
      dyz     :     0.009775
      dx2y2   :     0.000001
      dxy     :     0.000001


                      *****************************
                      * MAYER POPULATION ANALYSIS *
                      *****************************

  NA   - Mulliken gross atomic population
  ZA   - Total nuclear charge
  QA   - Mulliken gross atomic charge
  VA   - Mayer's total valence
  BVA  - Mayer's bonded valence
  FA   - Mayer's free valence

  ATOM       NA         ZA         QA         VA         BVA        FA
  0 Cl    16.3113    17.0000     0.6887     0.8682     0.1014     0.7668
  1 H      1.6887     1.0000    -0.6887     1.2609     0.1014     1.1595

  Mayer bond orders larger than 0.100000
B(  0-Cl,  1-H ) :   0.1014 


-------
TIMINGS
-------

Total TD-DFT gradient time  ....        0.650 sec

Fock matrix formation       ....       0.109 sec  ( 16.8%)
  Coulomb formation         ....       0.051 sec  ( 46.8% of F)
  XC integration            ....       0.058 sec  ( 53.2% of F)
Z-vector equation           ....       0.359 sec  ( 55.2%)
One electron gradient       ....       0.004 sec  (  0.6%)
RI-J Coulomb gradient       ....       0.053 sec  (  8.2%)

Maximum memory used throughout the entire CIS-calculation: 12.4 MB
=> NOW LEAVING ORCA_CIS

-------------------------   --------------------
FINAL SINGLE POINT ENERGY      -432.634014169822
-------------------------   --------------------

------------------------------------------------------------------------------
                         ORCA GEOMETRY RELAXATION STEP
------------------------------------------------------------------------------

Reading the OPT-File                    .... done
Getting information on internals        .... done
Copying old internal coords+grads       .... done
Making the new internal coordinates     .... (2022 redundants) done
Validating the new internal coordinates .... (2022 redundants) done
Calculating the B-matrix                .... done
Calculating the G,G- and P matrices     .... done
Transforming gradient to internals      .... done
Projecting the internal gradient        .... done
Number of atoms                         ....   2
Number of internal coordinates          ....   1
Current Energy                          ....  -432.634014170 Eh
Current gradient norm                   ....     0.323901582 Eh/bohr
Maximum allowed component of the step   ....  0.300
Current trust radius                    ....  0.300
Evaluating the initial hessian          ....  (Almloef) done
Projecting the Hessian                  .... done
Forming the augmented Hessian           .... done
Diagonalizing the augmented Hessian     .... done
Last element of RFO vector              ....  0.910139008
Lowest eigenvalues of augmented Hessian:
 -0.104257771
Length of the computed step             ....  0.455208499
Warning: the length of the step is outside the trust region - taking restricted step instead
The input lambda is                     ....     0.397881
   iter:   5  x=    0.391287  g=808625.157211 f(x)=  2046.716845
   iter:  10  x=    0.341304  g= 1850.307176 f(x)=    35.451952
   iter:  15  x=   -0.003513  g=    4.731138 f(x)=     0.574593
   iter:  20  x=   -0.364562  g=    0.236080 f(x)=     0.000078
The output lambda is                    ....    -0.364562 (23 iterations)
The final length of the internal step   ....  0.300000000
Converting the step to Cartesian space:
 Initial RMS(Int)=    0.3000000000
Transforming coordinates:
 Iter   0:  RMS(Cart)=    0.0866025404 RMS(Int)=    0.3000000000
done
Storing new coordinates                 .... done

                                .--------------------.
          ----------------------|Geometry convergence|-------------------------
          Item                value                   Tolerance       Converged
          ---------------------------------------------------------------------
          RMS gradient        0.2290330054            0.0000100000      NO
          MAX gradient        0.2290330054            0.0001000000      NO
          RMS step            0.3000000000            0.0000100000      NO
          MAX step            0.3000000000            0.0001000000      NO
          ........................................................
          Max(Bonds)      0.1588      Max(Angles)    0.00
          Max(Dihed)        0.00      Max(Improp)    0.00
          ---------------------------------------------------------------------

The optimization has not yet converged - more geometry cycles are needed


    ---------------------------------------------------------------------------
                         Redundant Internal Coordinates
                            (Angstroem and degrees)

        Definition                    Value    dE/dq     Step     New-Value
    ----------------------------------------------------------------------------
     1. B(H   1,Cl  0)                1.2822 -0.229033  0.1588    1.4409   
    ----------------------------------------------------------------------------

Geometry step timings:
Preparation and reading OPT file:      0.000 s ( 0.000 %)
Internal coordinates            :      0.000 s ( 0.000 %)
B/P matrices and projection     :      0.000 s ( 0.000 %)
Hessian update/contruction      :      0.001 s (50.000 %)
Making the step                 :      0.000 s ( 0.000 %)
Converting the step to Cartesian:      0.000 s ( 0.000 %)
Storing new data                :      0.000 s ( 0.000 %)
Checking convergence            :      0.000 s ( 0.000 %)
Final printing                  :      0.001 s (50.000 %)
Total time                      :      0.002 s

Time for energy+gradient        :      5.691 s
Time for complete geometry iter :      5.744 s

         *************************************************************
         *                GEOMETRY OPTIMIZATION CYCLE   2            *
         *************************************************************
---------------------------------
CARTESIAN COORDINATES (ANGSTROEM)
---------------------------------
  Cl     0.000000    0.000000    0.153521
  H      0.000000    0.000000   -1.287391

----------------------------
CARTESIAN COORDINATES (A.U.)
----------------------------
  NO LB      ZA    FRAG     MASS         X           Y           Z
   0 Cl   17.0000    0    35.453    0.000000    0.000000    0.290112
   1 H     1.0000    0     1.008    0.000000    0.000000   -2.432816

--------------------------------
INTERNAL COORDINATES (ANGSTROEM)
--------------------------------
 Cl     0   0   0     0.000000000000     0.00000000     0.00000000
 H      1   0   0     1.440911162490     0.00000000     0.00000000

---------------------------
INTERNAL COORDINATES (A.U.)
---------------------------
 Cl     0   0   0     0.000000000000     0.00000000     0.00000000
 H      1   0   0     2.722927480416     0.00000000     0.00000000

------------------------------------------------------------------------------
                   ___                                                        
                  /   \      - P O W E R E D   B Y -                         
                 /     \                                                     
                 |  |  |   _    _      __       _____    __    __             
                 |  |  |  | |  | |    /  \     |  _  \  |  |  /  |          
                  \  \/   | |  | |   /    \    | | | |  |  | /  /          
                 / \  \   | |__| |  /  /\  \   | |_| |  |  |/  /          
                |  |  |   |  __  | /  /__\  \  |    /   |      \           
                |  |  |   | |  | | |   __   |  |    \   |  |\   \          
                \     /   | |  | | |  |  |  |  | |\  \  |  | \   \       
                 \___/    |_|  |_| |__|  |__|  |_| \__\ |__|  \__/        
                                                                              
                      - O R C A' S   B I G   F R I E N D -                    
                                      &                                       
                       - I N T E G R A L  F E E D E R -                       
                                                                              
 v1 FN, 2020, v2 2021, v3 2022-2024                                           
------------------------------------------------------------------------------


----------------------
SHARK INTEGRAL PACKAGE
----------------------

Number of atoms                             ...      2
Number of basis functions                   ...     56
Number of shells                            ...     20
Maximum angular momentum                    ...      3
Integral batch strategy                     ... SHARK/LIBINT Hybrid
RI-J (if used) integral strategy            ... SPLIT-RIJ (Revised 2003 algorithm where possible)
Printlevel                                  ...      1
Contraction scheme used                     ... SEGMENTED contraction
Prescreening option                         ... SCHWARTZ
   Thresh                                   ... 1.000e-12
   Tcut                                     ... 1.000e-14
   Tpresel                                  ... 1.000e-14 
Coulomb Range Separation                    ... NOT USED
Exchange Range Separation                   ... NOT USED
Multipole approximations                    ... NOT USED
Finite Nucleus Model                        ... NOT USED
CABS basis                                  ... NOT available
Auxiliary Coulomb fitting basis             ... AVAILABLE
   # of basis functions in Aux-J            ...     62
   # of shells in Aux-J                     ...     22
   Maximum angular momentum in Aux-J        ...      4
Auxiliary J/K fitting basis                 ... NOT available
Auxiliary Correlation fitting basis         ... NOT available
Auxiliary 'external' fitting basis          ... NOT available

Checking pre-screening integrals            ... done (  0.0 sec) Dimension = 20
Check shell pair data                       ... done (  0.0 sec)
Shell pair information
Shell pair cut-off parameter TPreSel        ...   1.0e-14
Total number of shell pairs                 ...       210
Shell pairs after pre-screening             ...       210
Total number of primitive shell pairs       ...       668
Primitive shell pairs kept                  ...       646
          la=0 lb=0:     36 shell pairs
          la=1 lb=0:     56 shell pairs
          la=1 lb=1:     28 shell pairs
          la=2 lb=0:     32 shell pairs
          la=2 lb=1:     28 shell pairs
          la=2 lb=2:     10 shell pairs
          la=3 lb=0:      8 shell pairs
          la=3 lb=1:      7 shell pairs
          la=3 lb=2:      4 shell pairs
          la=3 lb=3:      1 shell pairs

Calculating one electron integrals          ... done (  0.0 sec)
Calculating RI/J V-Matrix + Cholesky decomp.... done (  0.0 sec)
Calculating Nuclear repulsion               ... done (  0.0 sec) ENN=      6.243280484797 Eh

Diagonalization of the overlap matrix:
Smallest eigenvalue                        ... 7.726e-03
Time for diagonalization                   ...    0.000 sec
Threshold for overlap eigenvalues          ... 1.000e-07
Number of eigenvalues below threshold      ... 0
Time for construction of square roots      ...    0.001 sec
Total time needed                          ...    0.007 sec

-------------------
DFT GRID GENERATION
-------------------

General Integration Accuracy     IntAcc      ... 4.388
Radial Grid Type                 RadialGrid  ... OptM3 with GC (2021)
Angular Grid (max. ang.)         AngularGrid ... 4 (Lebedev-302)
Angular grid pruning method      GridPruning ... 4 (adaptive)
Weight generation scheme         WeightScheme... mBecke (2022)
Basis function cutoff            BFCut       ... 1.0000e-12
Integration weight cutoff        WCut        ... 1.0000e-14
Partially contracted basis set               ... off
Rotationally invariant grid construction     ... off
Angular grids for H and He will be reduced by one unit

Total number of grid points                  ...    10687
Total number of batches                      ...      168
Average number of points per batch           ...       63
Average number of grid points per atom       ...     5344
Initializing property integral containers    ... done (  0.0 sec)

SHARK setup successfully completed in   0.1 seconds

Maximum memory used throughout the entire STARTUP-calculation: 15.1 MB
Occupation numbers will be reassigned to an Aufbau configuration
             **** ENERGY FILE WAS UPDATED (HCl_TDDFT-HFS.en.tmp) ****
Finished Guess after   0.1 sec
Maximum memory used throughout the entire GUESS-calculation: 7.3 MB
----------------------------------------D-I-I-S--------------------------------------------
Iteration    Energy (Eh)           Delta-E    RMSDP     MaxDP     DIISErr   Damp  Time(sec)
-------------------------------------------------------------------------------------------
               ***  Starting incremental Fock matrix formation  ***
    1    -432.8221261177151860     0.00e+00  1.44e-03  2.80e-02  1.31e-01  0.700   0.1
    2    -432.8248149113941281    -2.69e-03  1.18e-03  2.13e-02  9.22e-02  0.700   0.1
                               ***Turning on AO-DIIS***
    3    -432.8266146761261552    -1.80e-03  8.67e-04  1.53e-02  6.42e-02  0.700   0.1
    4    -432.8278184964087814    -1.20e-03  2.04e-03  3.54e-02  4.49e-02  0.000   0.1
                              *** Initializing SOSCF ***
---------------------------------------S-O-S-C-F--------------------------------------
Iteration    Energy (Eh)           Delta-E    RMSDP     MaxDP     MaxGrad    Time(sec)
--------------------------------------------------------------------------------------
    5    -432.8305677862348375    -2.75e-03  1.64e-04  2.51e-03  2.44e-03     0.1
               *** Restarting incremental Fock matrix formation ***
    6    -432.8305761198222967    -8.33e-06  1.25e-04  1.59e-03  5.92e-04     0.0
    7    -432.8305717687872516     4.35e-06  8.26e-05  1.02e-03  9.93e-04     0.0
    8    -432.8305791415227759    -7.37e-06  1.78e-05  2.87e-04  5.28e-05     0.0
    9    -432.8305790875289745     5.40e-08  1.21e-05  1.84e-04  1.01e-04     0.0
   10    -432.8305791621148160    -7.46e-08  1.24e-06  1.85e-05  3.76e-06     0.1
   11    -432.8305791622111087    -9.63e-11  5.02e-07  7.47e-06  2.82e-06     0.0
                 **** Energy Check signals convergence ****

               *****************************************************
               *                     SUCCESS                       *
               *           SCF CONVERGED AFTER  11 CYCLES          *
               *****************************************************

             **** ENERGY FILE WAS UPDATED (HCl_TDDFT-HFS.en.tmp) ****

----------------
TOTAL SCF ENERGY
----------------

Total Energy       :       -432.83057916221111 Eh          -11777.91884 eV

Components:
Nuclear Repulsion  :          6.24328048479702 Eh             169.88830 eV
Electronic Energy  :       -439.07385964700813 Eh          -11947.80714 eV
One Electron Energy:       -636.49457855924561 Eh          -17319.89801 eV
Two Electron Energy:        197.42071891223748 Eh            5372.09087 eV

Virial components:
Potential Energy   :       -876.00010895268906 Eh          -23837.17482 eV
Kinetic Energy     :        443.16952979047795 Eh           12059.25599 eV
Virial Ratio       :          1.97667043888790

DFT components:
N(Alpha)           :        0.000000000000 electrons
N(Beta)            :        0.000000000000 electrons
N(Total)           :        0.000000000000 electrons
E(X)               :        0.000000000000 Eh       
E(C)               :        0.000000000000 Eh       
E(XC)              :        0.000000000000 Eh       

---------------
SCF CONVERGENCE
---------------

  Last Energy change         ...    9.6293e-11  Tolerance :   1.0000e-09
  Last MAX-Density change    ...    7.4699e-06  Tolerance :   1.0000e-08
  Last RMS-Density change    ...    5.0202e-07  Tolerance :   1.0000e-09
  Last DIIS Error            ...    2.4355e-03  Tolerance :   1.0000e-08
  Last Orbital Gradient      ...    2.8151e-06  Tolerance :   2.0000e-06
  Last Orbital Rotation      ...    4.3859e-06  Tolerance :   2.0000e-06


Total SCF time: 0 days 0 hours 0 min 0 sec 
Finished LeanSCF after   0.7 sec

Maximum memory used throughout the entire LEANSCF-calculation: 5.1 MB

------------------------------------------------------------------------------
                         ORCA PROPERTY INTEGRAL CALCULATIONS
------------------------------------------------------------------------------

GBWName                                   ... HCl_TDDFT-HFS.gbw
Number of atoms                           ...      2
Number of basis functions                 ...     56
Max core memory                           ...   4000 MB

Dipole integrals                          ... YES
Quadrupole integrals                      ...  NO
Linear momentum integrals                 ... YES
Angular momentum integrals                ... YES
Higher moments length integrals           ...  NO
Higher moments velocity integrals         ...  NO
Kinetic energy integrals                  ...  NO
GIAO right hand sides                     ...  NO
GIAO dipole derivative integrals          ...  NO
SOC integrals                             ...  NO
EPR diamagnetic integrals (GIAO)          ...  NO
EPR gauge integrals                       ...  NO
Field gradient integrals                  ...  NO (   0 nuclei)
Spin-dipole/Fermi contact integrals       ...  NO (   0 nuclei)
Contact density integrals                 ...  NO (   0 nuclei)
Nucleus-orbit integrals                   ...  NO (   0 nuclei)
Geometric perturbations                   ...  NO (   2 nuclei)

Choice of electric origin   ... Center of mass
Position of electric origin ... (  0.0000,  0.0000,  0.2148) 
Choice of magnetic origin   ... GIAO
Position of magnetic origin ... (  0.0000,  0.0000,  0.0000) 

Calculating integrals                     ... Electric Dipole (Length)     done (  0.0 sec)
Calculating integrals                     ... Linear Momentum              done (  0.0 sec)
Calculating integrals                     ... Angular Momentum  (ElOri)    done (  0.0 sec)

Property integrals calculated in   0.0 sec

Maximum memory used throughout the entire PROPINT-calculation: 7.4 MB
[...]


                     *******************************
                     * LOEWDIN POPULATION ANALYSIS *
                     *******************************

----------------------
LOEWDIN ATOMIC CHARGES
----------------------
   0 Cl:    0.117528
   1 H :   -0.117528

-------------------------------
LOEWDIN REDUCED ORBITAL CHARGES
-------------------------------
  0 Cls       :     5.995798  s :     5.995798
      pz      :     3.883047  p :    10.884965
      px      :     3.095920
      py      :     3.905998
      dz2     :    -0.000040  d :     0.001766
      dxz     :     0.001573
      dyz     :     0.000163
      dx2y2   :     0.000035
      dxy     :     0.000035
      f0      :     0.000070  f :    -0.000057
      f+1     :    -0.000266
      f-1     :    -0.000124
      f+2     :     0.000131
      f-2     :     0.000131
      f+3     :    -0.000000
      f-3     :     0.000000
  1 H s       :     1.109157  s :     1.109157
      pz      :     0.007602  p :     0.008207
      px      :     0.000195
      py      :     0.000410
      dz2     :     0.000136  d :     0.000164
      dxz     :     0.000010
      dyz     :     0.000018
      dx2y2   :     0.000000
      dxy     :     0.000000


                      *****************************
                      * MAYER POPULATION ANALYSIS *
                      *****************************

  NA   - Mulliken gross atomic population
  ZA   - Total nuclear charge
  QA   - Mulliken gross atomic charge
  VA   - Mayer's total valence
  BVA  - Mayer's bonded valence
  FA   - Mayer's free valence

  ATOM       NA         ZA         QA         VA         BVA        FA
  0 Cl    16.8822    17.0000     0.1178     1.2012     0.2392     0.9620
  1 H      1.1178     1.0000    -0.1178     0.9950     0.2392     0.7558

  Mayer bond orders larger than 0.100000
B(  0-Cl,  1-H ) :   0.2392 


-------
TIMINGS
-------

Total TD-DFT gradient time  ....        0.832 sec

Fock matrix formation       ....       0.106 sec  ( 12.7%)
  Coulomb formation         ....       0.054 sec  ( 50.9% of F)
  XC integration            ....       0.052 sec  ( 49.1% of F)
Z-vector equation           ....       0.484 sec  ( 58.2%)
One electron gradient       ....       0.004 sec  (  0.5%)
RI-J Coulomb gradient       ....       0.055 sec  (  6.6%)

Maximum memory used throughout the entire CIS-calculation: 12.9 MB
=> NOW LEAVING ORCA_CIS

-------------------------   --------------------
FINAL SINGLE POINT ENERGY      -432.786402248298
-------------------------   --------------------

                                *** OPTIMIZATION RUN DONE ***


------------------------------------------------------------------------------
                              ORCA PROPERTY CALCULATIONS
------------------------------------------------------------------------------

GBWName                                 ... HCl_TDDFT-HFS.gbw
Number of atoms                         ...      2
Number of basis functions               ...     56
Max core memory                         ...   4000 MB

Electric properties:
Dipole moment                           ... YES
Quadrupole moment                       ...  NO
Static polarizability (Dipole/Dipole)   ...  NO
Static polarizability (Dipole/Quad.)    ...  NO
Static polarizability (Quad./Quad.)     ...  NO
Static polarizability (Velocity)        ...  NO

Atomic electric properties:
Dipole moment                           ...  NO
Quadrupole moment                       ...  NO
Static polarizability                   ...  NO

Choice of electric origin               ... Center of mass
Position of electric origin             ...     0.000000     0.000000     1.583975

General magnetic properties:
Magnetizability                         ...  NO

EPR properties:
g-Tensor (aka g-matrix)                 ...  NO
Zero-Field splitting spin-orbit         ...  NO
Zero-field splitting spin-spin          ...  NO
Hyperfine couplings                     ...  NO (   0 nuclei)
Quadrupole couplings                    ...  NO (   0 nuclei)
Contact density                         ...  NO (   0 nuclei)

NMR properties:
Chemical shifts                         ...  NO (   0 nuclei)
Spin-rotation constants                 ...  NO (   0 nuclei)
Spin-spin couplings                     ...  NO (   0 nuclei,    0 pairs)

Choice of magnetic origin               ... GIAO
Position of magnetic origin             ...     0.000000     0.000000     0.000000

Properties with geometric perturbations:
SCF Hessian                             ...  NO
IR spectrum                             ... YES
VCD spectrum                            ...  NO
X-ray spectroscopy properties:
SCF XES/XAS/RIXS spectra                ...  NO


-------------
DIPOLE MOMENT
-------------

Method             : SCF
Type of density    : Electron Density
Multiplicity       :   1
Irrep              :   0
Energy             :  -432.8024264219321822 Eh
Relativity type    : 
Basis              : AO
                                X                 Y                 Z
Electronic contribution:     -0.000000000       0.000000000       2.631357916
Nuclear contribution   :      0.000000000       0.000000000      -2.824074965
                        -----------------------------------------
Total Dipole Moment    :     -0.000000000       0.000000000      -0.192717049
                        -----------------------------------------
Magnitude (a.u.)       :      0.192717049
Magnitude (Debye)      :      0.489847811



--------------------
Rotational spectrum 
--------------------
 
Rotational constants in cm-1:             0.000000             1.943609             1.943609 
Rotational constants in MHz :             0.000000         58267.916992         58267.916992 

Dipole components along the rotational axes: 
x,y,z [a.u.] :    -0.192717     0.000000    -0.000000 
x,y,z [Debye]:    -0.489848     0.000000    -0.000000 

 

-------------
DIPOLE MOMENT
-------------

Method             : TDA/CIS
Type of density    : Electron Density
Level              : Relaxed density
State              :   1
Multiplicity       :   1
Irrep              :   0
Energy             :     0.0000000000000000 Eh
Relativity type    : 
Basis              : AO
                                X                 Y                 Z
Electronic contribution:      0.000000006       0.000000001       3.454719214
Nuclear contribution   :      0.000000000       0.000000000      -2.824074965
                        -----------------------------------------
Total Dipole Moment    :      0.000000006       0.000000001       0.630644248
                        -----------------------------------------
Magnitude (a.u.)       :      0.630644248
Magnitude (Debye)      :      1.602970289



--------------------
Rotational spectrum 
--------------------
 
Rotational constants in cm-1:             0.000000             1.943609             1.943609 
Rotational constants in MHz :             0.000000         58267.916992         58267.916992 

Dipole components along the rotational axes: 
x,y,z [a.u.] :     0.630644     0.000000     0.000000 
x,y,z [Debye]:     1.602970     0.000000     0.000000 

 

Dipole moment calculation done in   0.1 sec 

Maximum memory used throughout the entire PROP-calculation: 9.3 MB

----------------------------------------------------------------------------
                           ORCA NUMERICAL FREQUENCIES
----------------------------------------------------------------------------

Number of atoms                ... 2
Central differences            ... used
Number of displacements        ... 12
Numerical increment            ... 5.000e-03 bohr
IR-spectrum generation         ... on
Raman-spectrum generation      ... off
Surface Crossing Hessian       ... off

The output will be reduced. Please look at the following files:
SCF program output             ... >HCl_TDDFT-HFS.lastscf
Integral program output        ... >HCl_TDDFT-HFS.lastint
Gradient program output        ... >HCl_TDDFT-HFS.lastgrad
Dipole moment program output   ... >HCl_TDDFT-HFS.lastmom

	<< Calculating gradient on displaced geometry   1 (of  12) >>
	<< Calculating gradient on displaced geometry   2 (of  12) >>
	<< Calculating gradient on displaced geometry   3 (of  12) >>
	<< Calculating gradient on displaced geometry   4 (of  12) >>
	<< Calculating gradient on displaced geometry   5 (of  12) >>
	<< Calculating gradient on displaced geometry   6 (of  12) >>
	<< Calculating gradient on displaced geometry   7 (of  12) >>
	<< Calculating gradient on displaced geometry   8 (of  12) >>
	<< Calculating gradient on displaced geometry   9 (of  12) >>
	<< Calculating gradient on displaced geometry  10 (of  12) >>
	<< Calculating gradient on displaced geometry  11 (of  12) >>
	<< Calculating gradient on displaced geometry  12 (of  12) >>

-----------------------
VIBRATIONAL FREQUENCIES
-----------------------

Scaling factor for frequencies =  1.000000000  (already applied!)

     0:       0.00 cm**-1
     1:       0.00 cm**-1
     2:       0.00 cm**-1
     3:       0.00 cm**-1
     4:       0.00 cm**-1
     5:     359.68 cm**-1


------------
NORMAL MODES
------------

These modes are the Cartesian displacements weighted by the diagonal matrix
M(i,i)=1/sqrt(m[i]) where m[i] is the mass of the displaced atom
Thus, these vectors are normalized but *not* orthogonal

                  0          1          2          3          4          5    
      0       0.000000   0.000000   0.000000   0.000000   0.000000   0.000000
      1       0.000000   0.000000   0.000000   0.000000   0.000000   0.000000
      2       0.000000   0.000000   0.000000   0.000000   0.000000  -0.028421
      3       0.000000   0.000000   0.000000   0.000000   0.000000   0.000000
      4       0.000000   0.000000   0.000000   0.000000   0.000000   0.000000
      5       0.000000   0.000000   0.000000   0.000000   0.000000   0.999596


-----------
IR SPECTRUM
-----------

 Mode   freq       eps      Int      T**2         TX        TY        TZ
       cm**-1   L/(mol*cm) km/mol    a.u.
----------------------------------------------------------------------------
  5:    359.68   0.000000    0.00  0.000000  ( 0.000000 -0.000000 -0.000615)

* The epsilon (eps) is given for a Dirac delta lineshape.
** The dipole moment derivative (T) already includes vibrational overlap.

The first frequency considered to be a vibration is 5
The total number of vibrations considered is 1


--------------------------
THERMOCHEMISTRY AT 298.15K
--------------------------

Temperature         ...   298.15 K
Pressure            ...     1.00 atm
Total Mass          ...    36.46 AMU
Quasi RRHO          ...     True
Cut-Off Frequency   ...     1.00 cm^-1
The molecule is recognized as being linear

Throughout the following assumptions are being made:
  (1) The electronic state is orbitally nondegenerate
  (2) There are no thermally accessible electronically excited states
  (3) Hindered rotations indicated by low frequency modes are not
      treated as such but are treated as vibrations and this may
      cause some error
  (4) All equations used are the standard statistical mechanics
      equations for an ideal gas
  (5) All vibrations are strictly harmonic

freq.     359.68  E(vib)   ...       0.22 

------------
INNER ENERGY
------------

The inner energy is: U= E(el) + E(ZPE) + E(vib) + E(rot) + E(trans)
    E(el)   - is the total energy from the electronic structure calculation
              = E(kin-el) + E(nuc-el) + E(el-el) + E(nuc-nuc)
    E(ZPE)  - the the zero temperature vibrational energy from the frequency calculation
    E(vib)  - the the finite temperature correction to E(ZPE) due to population
              of excited vibrational states
    E(rot)  - is the rotational thermal energy
    E(trans)- is the translational thermal energy

Summary of contributions to the inner energy U:
Electronic energy                ...   -432.78640443 Eh
Zero point energy                ...      0.00081940 Eh       0.51 kcal/mol
Thermal vibrational correction   ...      0.00035073 Eh       0.22 kcal/mol
Thermal rotational correction    ...      0.00094418 Eh       0.59 kcal/mol
Thermal translational correction ...      0.00141627 Eh       0.89 kcal/mol
-----------------------------------------------------------------------
Total thermal energy                   -432.78287385 Eh


Summary of corrections to the electronic energy:
(perhaps to be used in another calculation)
Total thermal correction                  0.00271118 Eh       1.70 kcal/mol
Non-thermal (ZPE) correction              0.00081940 Eh       0.51 kcal/mol
-----------------------------------------------------------------------
Total correction                          0.00353059 Eh       2.22 kcal/mol


--------
ENTHALPY
--------

The enthalpy is H = U + kB*T
                kB is Boltzmann's constant
Total thermal energy              ...   -432.78287385 Eh 
Thermal Enthalpy correction       ...      0.00094421 Eh       0.59 kcal/mol
-----------------------------------------------------------------------
Total Enthalpy                    ...   -432.78192964 Eh


Note: Rotational entropy computed according to Herzberg 
Infrared and Raman Spectra, Chapter V,1, Van Nostrand Reinhold, 1945 
Point Group:  C(inf)v, Symmetry Number:   1  
Rotational constants in cm-1:     0.000000     1.943609     1.943609 

Vibrational entropy computed according to the QRRHO of S. Grimme
Chem.Eur.J. 2012 18 9955 using a reference frequency of 100.0 cm-1


-------
ENTROPY
-------

The entropy contributions are T*S = T*(S(el)+S(vib)+S(rot)+S(trans))
     S(el)   - electronic entropy
     S(vib)  - vibrational entropy
     S(rot)  - rotational entropy
     S(trans)- translational entropy
The entropies will be listed as multiplied by the temperature to get
units of energy

Electronic entropy                ...      0.00000000 Eh      0.00 kcal/mol
Vibrational entropy               ...      0.00053510 Eh      0.34 kcal/mol
Rotational entropy                ...      0.00535281 Eh      3.36 kcal/mol
Translational entropy             ...      0.01744233 Eh     10.95 kcal/mol
-----------------------------------------------------------------------
Final entropy term                ...      0.02333024 Eh     14.64 kcal/mol


-------------------
GIBBS FREE ENERGY
-------------------

The Gibbs free energy is G = H - T*S

Total enthalpy                    ...   -432.78192964 Eh 
Total entropy correction          ...     -0.02333024 Eh    -14.64 kcal/mol
-----------------------------------------------------------------------
Final Gibbs free energy         ...   -432.80525988 Eh

For completeness - the Gibbs free energy minus the electronic energy
G-E(el)                           ...     -0.01885545 Eh    -11.83 kcal/mol



--------------------------------
SUGGESTED CITATIONS FOR THIS RUN
--------------------------------

Below you find a list of papers that are relevant to this ORCA run
We neither can nor want to force you to cite these papers, but we appreciate if you do
You receive ORCA, which is the product of decades of hard work by many enthusiastic individuals, for free
The only thing we kindly ask in return is that you cite our papers,
We deeply appreciate it, if you show your appreciation for ORCA by not just citing the generic ORCA reference.

Please note that relegating all ORCA citations to the supporting information does *not* help us.
SI sections are not indexed - citations you put there will not count into any citation statistics
But we need these citations in order to attract the funding resources that allow us to do what we are doing

Therefore, if you are a happy ORCA user, please consider citing a few of the papers listed below in the main body of your paper

In addition to the list printed below, the program has created the file HCl_TDDFT-HFS.bibtex that contains the list in bibtex format
You can import this file easily into all common literature databanks and citation aid programs


List of essential papers. We consider these as the minimum necessary citations

  1. Neese,F.
     Software update: the ORCA program system, version 5.0
     WIRES Comput. Molec. Sci., 2022 12(1)e1606
     doi.org/10.1002/wcms.1606

List of papers to cite with high priority. The work reported in these papers was absolutely
necessary for this run to complete.
Our perspective: the developers of density functionals and basis sets usually get cited in chemistry papers
Good! But without the algorithms to do something with them, the functionals or basis sets would not do anything.
Hence, in our opinion, the algorithm design and method developments papers are equally worthy of getting cited

  1. Neese,F.; Olbrich,G.
     Efficient use of the resolution of the identity approximation in time-dependent density functional calculations with hybrid density functionals
     Chem. Phys. Lett., 2002 362 170-178
     doi.org/10.1016/s0009-2614(02)01053-9
  2. Neese,F.
     An improvement of the resolution of the identity approximation for the formation of the Coulomb matrix
     J. Comp. Chem., 2003 24(14)1740-1747
     doi.org/10.1002/jcc.10318
  3. Petrenko,T.; Kossmann,S.; Neese,F.
     Efficient time-dependent density functional theory approximations for hybrid density functionals: Analytical gradients and parallelization
     J. Chem. Phys., 2011 134 054116
     doi.org/10.1063/1.3533441
  4. Bykov,D.; Petrenko,T.; Izsak,R.; Kossmann,S.; Becker,U.; Valeev,E.; Neese,F.
     Efficient implementation of the analytic second derivatives of Hartree-Fock and hybrid DFT energies: a detailed analysis of different approximations
     Molec. Phys., 2015 113 1961-1977
     doi.org/10.1080/00268976.2015.1025114
  5. Neese,F.
     The SHARK Integral Generation and Digestion System
     J. Comp. Chem., 2022  1-16
     doi.org/10.1002/jcc.26942

List of suggested additional citations. These are papers that are important in the 'surrounding' of 
of this run, or papers that preceded the highly important papers. If you like your results we are grateful for a citation.

  1. Neese,F.
     The ORCA program system
     WIRES Comput. Molec. Sci., 2012 2(1)73-78
     doi.org/10.1002/wcms.81
  2. Neese,F.
     Software update: the ORCA program system, version 4.0
     WIRES Comput. Molec. Sci., 2018 8(1)1-6
     doi.org/10.1002/wcms.1327
  3. Neese,F.; Wennmohs,F.; Becker,U.; Riplinger,C.
     The ORCA quantum chemistry program package
     J. Chem. Phys., 2020 152 Art. No. L224108
     doi.org/10.1063/5.0004608

List of optional additional citations

  1. Neese,F.
     Approximate second-order SCF convergence for spin unrestricted wavefunctions
     Chem. Phys. Lett., 2000 325(1-3)93-98
     doi.org/10.1016/s0009-2614(00)00662-x

Timings for individual modules:

Sum of individual times          ...      209.242 sec (=   3.487 min)
Startup calculation              ...        2.318 sec (=   0.039 min)   1.1 %
SCF iterations                   ...       15.354 sec (=   0.256 min)   7.3 %
Property integrals               ...        1.595 sec (=   0.027 min)   0.8 %
Property calculations            ...        0.140 sec (=   0.002 min)   0.1 %
CIS module                       ...      104.835 sec (=   1.747 min)  50.1 %
Geometry relaxation              ...        0.186 sec (=   0.003 min)   0.1 %
Numerical frequency calculation  ...       84.814 sec (=   1.414 min)  40.5 %
                             ****ORCA TERMINATED NORMALLY****
TOTAL RUN TIME: 0 days 0 hours 3 minutes 23 seconds 623 msec
