
                                 *****************
                                 * O   R   C   A *
                                 *****************

                                            #,                                       
                                            ###                                      
                                            ####                                     
                                            #####                                    
                                            ######                                   
                                           ########,                                 
                                     ,,################,,,,,                         
                               ,,#################################,,                 
                          ,,##########################################,,             
                       ,#########################################, ''#####,          
                    ,#############################################,,   '####,        
                  ,##################################################,,,,####,       
                ,###########''''           ''''###############################       
              ,#####''   ,,,,##########,,,,          '''####'''          '####       
            ,##' ,,,,###########################,,,                        '##       
           ' ,,###''''                  '''############,,,                           
         ,,##''                                '''############,,,,        ,,,,,,###''
      ,#''                                            '''#######################'''  
     '                                                          ''''####''''         
             ,#######,   #######,   ,#######,      ##                                
            ,#'     '#,  ##    ##  ,#'     '#,    #''#        ,####,   ,####,        
            ##       ##  ##   ,#'  ##            #'  '#       #'       #'  '#        
            ##       ##  #######   ##           ,######,      #####,   #    #        
            '#,     ,#'  ##    ##  '#,     ,#' ,#      #,     #,   #   #,  ,#        
             '#######'   ##     ##  '#######'  #'      '#     '####' # '####'        



                #########################################################
                #                        -***-                          #
                #          Department of theory and spectroscopy        #
                #                                                       #
                #                      Frank Neese                      #
                #                                                       #
                #     Directorship, Architecture, Infrastructure        #
                #                    SHARK, DRIVERS                     #
                #        Core code/Algorithms in most modules           #
                #                                                       #
                #        Max Planck Institute fuer Kohlenforschung      #
                #                Kaiser Wilhelm Platz 1                 #
                #                 D-45470 Muelheim/Ruhr                 #
                #                      Germany                          #
                #                                                       #
                #                  All rights reserved                  #
                #                        -***-                          #
                #########################################################


                         Program Version 6.0.1  -  RELEASE   -


 With contributions from (in alphabetic order):
[Max-Planck-Institut fuer Kohlenforschung]                               
  Daniel Aravena         : Magnetic Suceptibility                        
  Michael Atanasov       : Ab Initio Ligand Field Theory (pilot matlab implementation)
  Alexander A. Auer      : GIAO ZORA, VPT2 properties, NMR spectrum      
  Ute Becker             : All parallelization in ORCA, NUMFREQ, NUMCALC 
  Giovanni Bistoni       : ED, misc. LED, open-shell LED, HFLD           
  Martin Brehm           : Molecular dynamics                            
  Dmytro Bykov           : pre 5.0 version of the SCF Hessian            
  Marcos Casanova-Páez   : Triplet and SCS-CIS(D). UHF-(DLPNO)-IP/EA/STEOM-CCSD. UHF-CVS-IP/STEOM-CCSD   
  Vijay G. Chilkuri      : MRCI spin determinant printing, contributions to CSF-ICE 
  Pauline Colinet        : FMM embedding                                 
  Dipayan Datta          : RHF DLPNO-CCSD density                        
  Achintya Kumar Dutta   : EOM-CC, STEOM-CC                              
  Nicolas Foglia         : Exact transition moments, OPA infrastructure, MCD improvements    
  Dmitry Ganyushin       : Spin-Orbit,Spin-Spin,Magnetic field MRCI      
  Miquel Garcia-Rates    : C-PCM and meta-GGA Hessian, CCSD/C-PCM, Gaussian charge scheme 
  Tiago L. C. Gouveia    : GS-ROHF, GS-ROCIS                             
  Yang Guo               : DLPNO-NEVPT2, F12-NEVPT2, CIM, IAO-localization        
  Andreas Hansen         : Spin unrestricted coupled pair/coupled cluster methods 
  Ingolf Harden          : AUTO-CI MPn and infrastructure                
  Benjamin Helmich-Paris : MC-RPA, TRAH-(SCF,CASSCF), AVAS, COSX integrals, SCF dyn. polar. 
  Lee Huntington         : MR-EOM, pCC                                   
  Robert Izsak           : Overlap fitted RIJCOSX, COSX-SCS-MP3, EOM     
  Riya Kayal             : Wick's Theorem for AUTO-CI, AUTO-CI UHF-CCSDT 
  Emily Kempfer          : AUTO-CI, RHF CISDT and CCSDT                  
  Christian Kollmar      : KDIIS, OOCD, Brueckner-CCSD(T), CCSD density, CASPT2, CASPT2-K, improved NEVPT2 
  Axel Koslowski         : Symmetry handling                             
  Simone Kossmann        : meta-GGA functionals, TD-DFT gradient, OOMP2, (MP2 Hessian; deprecated post 5.0) 
  Lucas Lang             : DCDCAS                                        
  Marvin Lechner         : AUTO-CI (C++ implementation), FIC-MRCC        
  Spencer Leger          : CASSCF response                               
  Dagmar Lenk            : GEPOL surface, SMD, ORCA-2-JSON               
  Dimitrios Liakos       : Extrapolation schemes; Compound Job, initial MDCI parallelization 
  Dimitrios Manganas     : Further ROCIS development; embedding schemes. LFT, Crystal Embedding 
  Dimitrios Pantazis     : SARC Basis sets                               
  Anastasios Papadopoulos: AUTO-CI, single reference methods and gradients 
  Taras Petrenko         : pre 6.0 DFT Hessian and TD-DFT gradient, (ASA, deprecated), ECA, 1-Electron XAS/XES, NRVS 
  Peter Pinski           : DLPNO-MP2, DLPNO-MP2 Gradient                 
  Christoph Reimann      : Effective Core Potentials                     
  Marius Retegan         : Local ZFS, SOC                                
  Christoph Riplinger    : Optimizer, TS searches, QM/MM, DLPNO-CCSD(T), (RO)-DLPNO pert. Triples 
  Michael Roemelt        : Original ROCIS implementation                 
  Masaaki Saitow         : Open-shell DLPNO-CCSD energy and density      
  Barbara Sandhoefer     : DKH picture change effects                    
  Kantharuban Sivalingam : CASSCF convergence/infrastructure, NEVPT2 and variants, FIC-MRCI 
  Bernardo de Souza      : ESD, SOC TD-DFT                               
  Georgi L. Stoychev     : AutoAux, RI-MP2 NMR, DLPNO-MP2 response, X2C  
  Van Anh Tran           : RI-MP2 g-tensors                              
  Willem Van den Heuvel  : Paramagnetic NMR                              
  Zikuan Wang            : NOTCH, Electric field optimization            
  Frank Wennmohs         : Technical directorship and infrastructure     
  Hang Xu                : AUTO-CI-Response properties                   
                                                                         
[FACCTs GmbH]                                                            
  Markus Bursch, Miquel Garcia-Rates, Christoph Riplinger, Bernardo de Souza, Georgi L. Stoychev 
                                                                 
  APM, Basis sets (HGBS, AHGBS, def-TZVP (Ac-Lr), def2-XVPD (La-Lu)), CI-OPT, improved COSX, DLPNO-Multilevel,           
  DOCKER, DRACO, updates on ESD, GOAT, IRC, LR-CPCM, MBIS, meta-GGA TD-DFT gradient, ML-optimized integration grids, 
  MM, NACMEs, nearIR, NEB, NEB-TS, NL-DFT gradient (VV10), 2- and 3-layer-ONIOM, interface openCOSMO-RS, QMMM,   
  Crystal-QMMM, SF, symmetry and pop. for TD-DFT, r2SCAN hybrids, SOLVATOR                                   
                                                                         
[Other institutions]                                                     
  V. Asgeirsson          : NEB                                           
  Christoph Bannwarth    : sTDA-DFT, sTD-DFT, PBEh-3c, B97-3c, D3        
  Sebastian Ehlert       : rSCAN, r2SCAN, r2SCAN-3c, D4, dhf basis sets  
  Marvin Friede          : D4 for Fr, Ra, Ac-Lr                          
  Lars Goerigk           : TD-DFT with DH, B97 family of functionals     
  Stefan Grimme          : VdW corrections, initial TS optimization, DFT functionals, gCP, sTDA/sTD-DF 
  Waldemar Hujo          : DFT-NL                                        
  H. Jonsson             : NEB                                           
  Holger Kruse           : gCP                                           
  Marcel Mueller         : wB97X-3c, vDZP basis set                      
  Hagen Neugebauer       : wr2SCAN                                       
  Tobias Risthaus        : range-separated hybrid DFT                    
  Lukas Wittmann         : regularized MP2, r2SCAN double-hybrids, wr2SCAN        
                                                                         
We gratefully acknowledge several colleagues who have allowed us to      
interface, adapt or use parts of their codes:                            
  Ed Valeev, F. Pavosevic, A. Kumar             : LibInt (2-el integral package), F12 methods 
  Garnet Chan, S. Sharma, J. Yang, R. Olivares  : DMRG                   
  Ulf Ekstrom                                   : XCFun DFT Library      
  Mihaly Kallay                                 : mrcc  (arbitrary order and MRCC methods)
  Frank Weinhold                                : gennbo (NPA and NBO analysis)           
  Simon Mueller                                 : openCOSMO-RS                            
  Christopher J. Cramer and Donald G. Truhlar   : smd solvation model                     
  S Lehtola, MJT Oliveira, MAL Marques          : LibXC Library                           
  Liviu Ungur et al                             : ANISO software                          


 Your calculation uses the libint2 library for the computation of 2-el integrals
 For citations please refer to: http://libint.valeyev.net

 Your ORCA version has been built with support for libXC version: 6.2.2
 For citations please refer to: https://libxc.gitlab.io

 This ORCA versions uses:
   CBLAS   interface :  Fast vector & matrix operations
   LAPACKE interface :  Fast linear algebra routines
   SCALAPACK package :  Parallel linear algebra routines
   Shared memory     :  Shared parallel matrices
   BLAS/LAPACK       :  OpenBLAS 0.3.27  USE64BITINT DYNAMIC_ARCH NO_AFFINITY Zen SINGLE_THREADED
        Core in use  :  Zen
   Copyright (c) 2011-2014, The OpenBLAS Project


NOTE: MaxCore=4000 MB was set to SCF,MP2,MDCI,CIPSI,MRCI and CIS
      => If you want to overwrite this, your respective input block should be placed after the MaxCore statement
Warning: RI is on but no J-basis has been assigned. Assigning Def2/J (nothing to worry about!)
================================================================================

----- Orbital basis set information -----
Your calculation utilizes the basis: def2-TZVPP
   F. Weigend and R. Ahlrichs, Phys. Chem. Chem. Phys. 7, 3297 (2005).

----- AuxJ basis set information -----
Your calculation utilizes the auxiliary basis: def2/J
   F. Weigend, Phys. Chem. Chem. Phys. 8, 1057 (2006).

================================================================================
                                        WARNINGS
                       Please study these warnings very carefully!
================================================================================


WARNING: Geometry Optimization
  ===> : Switching off AutoStart
         For restart on a previous wavefunction, please use MOREAD

================================================================================
                                       INPUT FILE
================================================================================
NAME = C6H6_Opt_Geom-PBE0.inp
|  1> ! PBE0 def2-TZVPP Opt TightOpt VeryTightSCF
|  2> 
|  3> %scf
|  4>    MaxIter 400          # Máximo de iteraciones permitidas para el SCF
|  5> end
|  6> 
|  7> %geom
|  8>    TolRMSD 1.0e-5
|  9>    TolMAXD 1.0e-4
| 10>    TolRMSG 1.0e-5
| 11>    TolMAXG 1.0e-4
| 12> end
| 13> 
| 14> %pal
| 15>    nprocs 30
| 16> end
| 17> 
| 18> %MaxCore 4000            # Memoria máxima por núcleo (en MB)
| 19> 
| 20> * xyz 0 1
| 21> C      -1.19880240    0.69212860    0.00000000
| 22> C      -1.19880240   -0.69212860    0.00000000
| 23> C       0.00000000   -1.38425390    0.00000000
| 24> C       1.19880240   -0.69212860    0.00000000
| 25> C       1.19880240    0.69212860    0.00000000
| 26> C       0.00000000    1.38425390    0.00000000
| 27> H      -2.13315490   -1.23157780    0.00000000
| 28> H       0.00000000   -2.46315180    0.00000000
| 29> H       2.13315490   -1.23157780    0.00000000
| 30> H       2.13315490    1.23157780    0.00000000
| 31> H       0.00000000    2.46315180    0.00000000
| 32> H      -2.13315490    1.23157780    0.00000000
| 33> **                         ****END OF INPUT****
================================================================================

                       *****************************
                       * Geometry Optimization Run *
                       *****************************

Geometry optimization settings:
Update method            Update   .... BFGS
Choice of coordinates    CoordSys .... (2022) Redundant Internals
Initial Hessian          InHess   .... Almloef's Model
Max. no of cycles        MaxIter  .... 50

Convergence Tolerances:
Energy Change            TolE     ....  1.0000e-06 Eh
Max. Gradient            TolMAXG  ....  1.0000e-04 Eh/bohr
RMS Gradient             TolRMSG  ....  1.0000e-05 Eh/bohr
Max. Displacement        TolMAXD  ....  1.0000e-04 bohr
RMS Displacement         TolRMSD  ....  1.0000e-05 bohr
Strict Convergence                .... False

------------------------------------------------------------------------------
                        ORCA OPTIMIZATION COORDINATE SETUP
------------------------------------------------------------------------------

The optimization will be done in redundant internal coordinates (2022)
Making redundant internal coordinates   ...  (2022 redundants) done
Evaluating the initial hessian          ...  (Almloef) done
Evaluating the coordinates              ...  done
Calculating the B-matrix                .... done
Calculating the G-matrix                .... done
Diagonalizing the G-matrix              .... done
The first mode is                       ....   24
The number of degrees of freedom        ....   30

    -----------------------------------------------------------------
                    Redundant Internal Coordinates


    -----------------------------------------------------------------
         Definition                    Initial Value    Approx d2E/dq
    -----------------------------------------------------------------
      1. B(C   1,C   0)                  1.3843         0.638118   
      2. B(C   2,C   1)                  1.3843         0.638121   
      3. B(C   3,C   2)                  1.3843         0.638121   
      4. B(C   4,C   3)                  1.3843         0.638118   
      5. B(C   5,C   4)                  1.3843         0.638121   
      6. B(C   5,C   0)                  1.3843         0.638121   
      7. B(H   6,C   1)                  1.0789         0.375091   
      8. B(H   7,C   2)                  1.0789         0.375090   
      9. B(H   8,C   3)                  1.0789         0.375091   
     10. B(H   9,C   4)                  1.0789         0.375091   
     11. B(H  10,C   5)                  1.0789         0.375090   
     12. B(H  11,C   0)                  1.0789         0.375091   
     13. A(C   1,C   0,H  11)          120.0000         0.357099   
     14. A(C   5,C   0,H  11)          120.0001         0.357099   
     15. A(C   1,C   0,C   5)          119.9999         0.438595   
     16. A(C   0,C   1,C   2)          119.9999         0.438595   
     17. A(C   2,C   1,H   6)          120.0001         0.357099   
     18. A(C   0,C   1,H   6)          120.0000         0.357099   
     19. A(C   3,C   2,H   7)          119.9999         0.357099   
     20. A(C   1,C   2,H   7)          119.9999         0.357099   
     21. A(C   1,C   2,C   3)          120.0003         0.438595   
     22. A(C   2,C   3,C   4)          119.9999         0.438595   
     23. A(C   4,C   3,H   8)          120.0000         0.357099   
     24. A(C   2,C   3,H   8)          120.0001         0.357099   
     25. A(C   5,C   4,H   9)          120.0001         0.357099   
     26. A(C   3,C   4,H   9)          120.0000         0.357099   
     27. A(C   3,C   4,C   5)          119.9999         0.438595   
     28. A(C   0,C   5,H  10)          119.9999         0.357099   
     29. A(C   0,C   5,C   4)          120.0003         0.438595   
     30. A(C   4,C   5,H  10)          119.9999         0.357099   
     31. D(H   6,C   1,C   0,C   5)    180.0000         0.028280   
     32. D(H   6,C   1,C   0,H  11)      0.0000         0.028280   
     33. D(C   2,C   1,C   0,H  11)    180.0000         0.028280   
     34. D(C   2,C   1,C   0,C   5)      0.0000         0.028280   
     35. D(H   7,C   2,C   1,C   0)    180.0000         0.028280   
     36. D(C   3,C   2,C   1,C   0)      0.0000         0.028280   
     37. D(C   3,C   2,C   1,H   6)    180.0000         0.028280   
     38. D(H   7,C   2,C   1,H   6)      0.0000         0.028280   
     39. D(H   8,C   3,C   2,H   7)      0.0000         0.028280   
     40. D(H   8,C   3,C   2,C   1)    180.0000         0.028280   
     41. D(C   4,C   3,C   2,H   7)    180.0000         0.028280   
     42. D(C   4,C   3,C   2,C   1)      0.0000         0.028280   
     43. D(H   9,C   4,C   3,C   2)    180.0000         0.028280   
     44. D(C   5,C   4,C   3,H   8)    180.0000         0.028280   
     45. D(C   5,C   4,C   3,C   2)      0.0000         0.028280   
     46. D(H   9,C   4,C   3,H   8)      0.0000         0.028280   
     47. D(H  10,C   5,C   4,H   9)      0.0000         0.028280   
     48. D(C   0,C   5,C   4,H   9)    180.0000         0.028280   
     49. D(C   0,C   5,C   4,C   3)      0.0000         0.028280   
     50. D(H  10,C   5,C   0,H  11)      0.0000         0.028280   
     51. D(H  10,C   5,C   0,C   1)    180.0000         0.028280   
     52. D(H  10,C   5,C   4,C   3)    180.0000         0.028280   
     53. D(C   4,C   5,C   0,H  11)    180.0000         0.028280   
     54. D(C   4,C   5,C   0,C   1)      0.0000         0.028280   
    -----------------------------------------------------------------

Number of atoms                         .... 12
Number of degrees of freedom            .... 54


         *************************************************************
         *                GEOMETRY OPTIMIZATION CYCLE   1            *
         *************************************************************
---------------------------------
CARTESIAN COORDINATES (ANGSTROEM)
---------------------------------
  C     -1.198802    0.692129    0.000000
  C     -1.198802   -0.692129    0.000000
  C      0.000000   -1.384254    0.000000
  C      1.198802   -0.692129    0.000000
  C      1.198802    0.692129    0.000000
  C      0.000000    1.384254    0.000000
  H     -2.133155   -1.231578    0.000000
  H      0.000000   -2.463152    0.000000
  H      2.133155   -1.231578    0.000000
  H      2.133155    1.231578    0.000000
  H      0.000000    2.463152    0.000000
  H     -2.133155    1.231578    0.000000

----------------------------
CARTESIAN COORDINATES (A.U.)
----------------------------
  NO LB      ZA    FRAG     MASS         X           Y           Z
   0 C     6.0000    0    12.011   -2.265408    1.307934    0.000000
   1 C     6.0000    0    12.011   -2.265408   -1.307934    0.000000
   2 C     6.0000    0    12.011    0.000000   -2.615861    0.000000
   3 C     6.0000    0    12.011    2.265408   -1.307934    0.000000
   4 C     6.0000    0    12.011    2.265408    1.307934    0.000000
   5 C     6.0000    0    12.011    0.000000    2.615861    0.000000
   6 H     1.0000    0     1.008   -4.031079   -2.327345    0.000000
   7 H     1.0000    0     1.008    0.000000   -4.654682    0.000000
   8 H     1.0000    0     1.008    4.031079   -2.327345    0.000000
   9 H     1.0000    0     1.008    4.031079    2.327345    0.000000
  10 H     1.0000    0     1.008    0.000000    4.654682    0.000000
  11 H     1.0000    0     1.008   -4.031079    2.327345    0.000000

--------------------------------
INTERNAL COORDINATES (ANGSTROEM)
--------------------------------
 C      0   0   0     0.000000000000     0.00000000     0.00000000
 C      1   0   0     1.384257200000     0.00000000     0.00000000
 C      2   1   0     1.384255982521   119.99987137     0.00000000
 C      3   2   1     1.384255982521   120.00025725     0.00000000
 C      4   3   2     1.384257200000   119.99987137     0.00000000
 C      1   2   3     1.384255982521   119.99987137     0.00000000
 H      2   1   3     1.078897601090   120.00002450   180.00000000
 H      3   2   1     1.078897900000   119.99987137   180.00000085
 H      4   3   2     1.078897601090   120.00010413   180.00000000
 H      5   4   3     1.078897601090   120.00002450   180.00000000
 H      6   1   2     1.078897900000   119.99987137   180.00000085
 H      1   2   3     1.078897601090   120.00002450   180.00000000

---------------------------
INTERNAL COORDINATES (A.U.)
---------------------------
 C      0   0   0     0.000000000000     0.00000000     0.00000000
 C      1   0   0     2.615867006909     0.00000000     0.00000000
 C      2   1   0     2.615864706207   119.99987137     0.00000000
 C      3   2   1     2.615864706207   120.00025725     0.00000000
 C      4   3   2     2.615867006909   119.99987137     0.00000000
 C      1   2   3     2.615864706207   119.99987137     0.00000000
 H      2   1   3     2.038820992604   120.00002450   180.00000000
 H      3   2   1     2.038821557463   119.99987137   180.00000085
 H      4   3   2     2.038820992604   120.00010413   180.00000000
 H      5   4   3     2.038820992604   120.00002450   180.00000000
 H      6   1   2     2.038821557463   119.99987137   180.00000085
 H      1   2   3     2.038820992604   120.00002450   180.00000000

---------------------
BASIS SET INFORMATION
---------------------
There are 2 groups of distinct atoms

 Group   1 Type C   : 11s6p2d1f contracted to 5s3p2d1f pattern {62111/411/11/1}
 Group   2 Type H   : 5s2p1d contracted to 3s2p1d pattern {311/11/1}

Atom   0C    basis set group =>   1
Atom   1C    basis set group =>   1
Atom   2C    basis set group =>   1
Atom   3C    basis set group =>   1
Atom   4C    basis set group =>   1
Atom   5C    basis set group =>   1
Atom   6H    basis set group =>   2
Atom   7H    basis set group =>   2
Atom   8H    basis set group =>   2
Atom   9H    basis set group =>   2
Atom  10H    basis set group =>   2
Atom  11H    basis set group =>   2
---------------------------------
AUXILIARY/J BASIS SET INFORMATION
---------------------------------
There are 2 groups of distinct atoms

 Group   1 Type C   : 12s5p4d2f1g contracted to 6s4p3d1f1g pattern {711111/2111/211/2/1}
 Group   2 Type H   : 5s2p1d contracted to 3s1p1d pattern {311/2/1}

Atom   0C    basis set group =>   1
Atom   1C    basis set group =>   1
Atom   2C    basis set group =>   1
Atom   3C    basis set group =>   1
Atom   4C    basis set group =>   1
Atom   5C    basis set group =>   1
Atom   6H    basis set group =>   2
Atom   7H    basis set group =>   2
Atom   8H    basis set group =>   2
Atom   9H    basis set group =>   2
Atom  10H    basis set group =>   2
Atom  11H    basis set group =>   2


           ************************************************************
           *        Program running with 30 parallel MPI-processes    *
           *              working on a common directory               *
           ************************************************************
------------------------------------------------------------------------------
                             ORCA STARTUP CALCULATIONS
                           -- RI-GTO INTEGRALS CHOSEN --
------------------------------------------------------------------------------
------------------------------------------------------------------------------
                   ___                                                        
                  /   \      - P O W E R E D   B Y -                         
                 /     \                                                     
                 |  |  |   _    _      __       _____    __    __             
                 |  |  |  | |  | |    /  \     |  _  \  |  |  /  |          
                  \  \/   | |  | |   /    \    | | | |  |  | /  /          
                 / \  \   | |__| |  /  /\  \   | |_| |  |  |/  /          
                |  |  |   |  __  | /  /__\  \  |    /   |      \           
                |  |  |   | |  | | |   __   |  |    \   |  |\   \          
                \     /   | |  | | |  |  |  |  | |\  \  |  | \   \       
                 \___/    |_|  |_| |__|  |__|  |_| \__\ |__|  \__/        
                                                                              
                      - O R C A' S   B I G   F R I E N D -                    
                                      &                                       
                       - I N T E G R A L  F E E D E R -                       
                                                                              
 v1 FN, 2020, v2 2021, v3 2022-2024                                           
------------------------------------------------------------------------------


----------------------
SHARK INTEGRAL PACKAGE
----------------------

Number of atoms                             ...     12
Number of basis functions                   ...    270
Number of shells                            ...    102
Maximum angular momentum                    ...      3
Integral batch strategy                     ... SHARK/LIBINT Hybrid
RI-J (if used) integral strategy            ... SPLIT-RIJ (Revised 2003 algorithm where possible)
Printlevel                                  ...      1
Contraction scheme used                     ... SEGMENTED contraction
Prescreening option                         ... SCHWARTZ
   Thresh                                   ... 1.000e-12
   Tcut                                     ... 1.000e-14
   Tpresel                                  ... 1.000e-14 
Coulomb Range Separation                    ... NOT USED
Exchange Range Separation                   ... NOT USED
Multipole approximations                    ... NOT USED
Finite Nucleus Model                        ... NOT USED
CABS basis                                  ... NOT available
Auxiliary Coulomb fitting basis             ... AVAILABLE
   # of basis functions in Aux-J            ...    360
   # of shells in Aux-J                     ...    120
   Maximum angular momentum in Aux-J        ...      4
Auxiliary J/K fitting basis                 ... NOT available
Auxiliary Correlation fitting basis         ... NOT available
Auxiliary 'external' fitting basis          ... NOT available

Checking pre-screening integrals            ... done (  0.0 sec) Dimension = 102
Check shell pair data                       ... done (  0.0 sec)
Shell pair information
Shell pair cut-off parameter TPreSel        ...   1.0e-14
Total number of shell pairs                 ...      5253
Shell pairs after pre-screening             ...      5046
Total number of primitive shell pairs       ...     14346
Primitive shell pairs kept                  ...     11325
          la=0 lb=0:   1095 shell pairs
          la=1 lb=0:   1386 shell pairs
          la=1 lb=1:    456 shell pairs
          la=2 lb=0:    822 shell pairs
          la=2 lb=1:    522 shell pairs
          la=2 lb=2:    168 shell pairs
          la=3 lb=0:    288 shell pairs
          la=3 lb=1:    180 shell pairs
          la=3 lb=2:    108 shell pairs
          la=3 lb=3:     21 shell pairs

Calculating one electron integrals          ... done (  0.0 sec)
Calculating RI/J V-Matrix + Cholesky decomp.... done (  0.0 sec)
Calculating Nuclear repulsion               ... done (  0.0 sec) ENN=    204.957759944352 Eh

Diagonalization of the overlap matrix:
Smallest eigenvalue                        ... 9.606e-06
Time for diagonalization                   ...    0.015 sec
Threshold for overlap eigenvalues          ... 1.000e-07
Number of eigenvalues below threshold      ... 0
Time for construction of square roots      ...    0.010 sec
Total time needed                          ...    0.027 sec

-------------------
DFT GRID GENERATION
-------------------

General Integration Accuracy     IntAcc      ... 4.388
Radial Grid Type                 RadialGrid  ... OptM3 with GC (2021)
Angular Grid (max. ang.)         AngularGrid ... 4 (Lebedev-302)
Angular grid pruning method      GridPruning ... 4 (adaptive)
Weight generation scheme         WeightScheme... mBecke (2022)
Basis function cutoff            BFCut       ... 1.0000e-12
Integration weight cutoff        WCut        ... 1.0000e-14
Partially contracted basis set               ... off
Rotationally invariant grid construction     ... off
Angular grids for H and He will be reduced by one unit

Total number of grid points                  ...    55482
Total number of batches                      ...      874
Average number of points per batch           ...       63
Average number of grid points per atom       ...     4624

--------------------
COSX GRID GENERATION
--------------------

GRIDX 1
-------
General Integration Accuracy     IntAcc      ... 3.816
Radial Grid Type                 RadialGrid  ... OptM3 with GC (2021)
Angular Grid (max. ang.)         AngularGrid ... 1 (Lebedev-50)
Angular grid pruning method      GridPruning ... 4 (adaptive)
Weight generation scheme         WeightScheme... mBecke (2022)
Basis function cutoff            BFCut       ... 1.0000e-12
Integration weight cutoff        WCut        ... 1.0000e-14
Partially contracted basis set               ... on
Rotationally invariant grid construction     ... off
Angular grids for H and He will be reduced by one unit

Total number of grid points                  ...     7120
Total number of batches                      ...       60
Average number of points per batch           ...      118
Average number of grid points per atom       ...      593
UseSFitting                                  ... on

GRIDX 2
-------
General Integration Accuracy     IntAcc      ... 4.020
Radial Grid Type                 RadialGrid  ... OptM3 with GC (2021)
Angular Grid (max. ang.)         AngularGrid ... 2 (Lebedev-110)
Angular grid pruning method      GridPruning ... 4 (adaptive)
Weight generation scheme         WeightScheme... mBecke (2022)
Basis function cutoff            BFCut       ... 1.0000e-12
Integration weight cutoff        WCut        ... 1.0000e-14
Partially contracted basis set               ... on
Rotationally invariant grid construction     ... off
Angular grids for H and He will be reduced by one unit

Total number of grid points                  ...    15456
Total number of batches                      ...      126
Average number of points per batch           ...      122
Average number of grid points per atom       ...     1288
UseSFitting                                  ... on

GRIDX 3
-------
General Integration Accuracy     IntAcc      ... 4.338
Radial Grid Type                 RadialGrid  ... OptM3 with GC (2021)
Angular Grid (max. ang.)         AngularGrid ... 3 (Lebedev-194)
Angular grid pruning method      GridPruning ... 4 (adaptive)
Weight generation scheme         WeightScheme... mBecke (2022)
Basis function cutoff            BFCut       ... 1.0000e-12
Integration weight cutoff        WCut        ... 1.0000e-14
Partially contracted basis set               ... on
Rotationally invariant grid construction     ... off
Angular grids for H and He will be reduced by one unit

Total number of grid points                  ...    34000
Total number of batches                      ...      272
Average number of points per batch           ...      125
Average number of grid points per atom       ...     2833
UseSFitting                                  ... on
Initializing property integral containers    ... done (  0.0 sec)

SHARK setup successfully completed in   1.0 seconds

Maximum memory used throughout the entire STARTUP-calculation: 19.2 MB


           ************************************************************
           *        Program running with 30 parallel MPI-processes    *
           *              working on a common directory               *
           ************************************************************
-------------------------------------------------------------------------------
                                 ORCA GUESS
                   Start orbitals & Density for SCF / CASSCF
-------------------------------------------------------------------------------

------------
SCF SETTINGS
------------
Hamiltonian:
 Density Functional     Method          .... DFT(GTOs)
 Exchange Functional    Exchange        .... PBE
   PBE kappa parameter   XKappa         ....  0.804000
   PBE mue parameter    XMuePBE         ....  0.219520
 Correlation Functional Correlation     .... PBE
   PBE beta parameter  CBetaPBE         ....  0.066725
 LDA part of GGA corr.  LDAOpt          .... PW91-LDA
 Gradients option       PostSCFGGA      .... off
 Hybrid DFT is turned on
   Fraction HF Exchange ScalHFX         ....  0.250000
   Scaling of DF-GGA-X  ScalDFX         ....  0.750000
   Scaling of DF-GGA-C  ScalDFC         ....  1.000000
   Scaling of DF-LDA-C  ScalLDAC        ....  1.000000
   Perturbative correction              ....  0.000000
   NL short-range parameter             ....  6.900000
 RI-approximation to the Coulomb term is turned on
   Number of AuxJ basis functions       .... 360
   RIJ-COSX (HFX calculated with COS-X)).... on


General Settings:
 Integral files         IntName         .... C6H6_Opt_Geom-PBE0
 Hartree-Fock type      HFTyp           .... RHF
 Total Charge           Charge          ....    0
 Multiplicity           Mult            ....    1
 Number of Electrons    NEL             ....   42
 Basis Dimension        Dim             ....  270
 Nuclear Repulsion      ENuc            ....    204.9577599444 Eh

Convergence Acceleration:
 AO-DIIS                CNVDIIS         .... on
   Start iteration      DIISMaxIt       ....    12
   Startup error        DIISStart       ....  0.200000
   # of expansion vecs  DIISMaxEq       ....     5
   Bias factor          DIISBfac        ....   1.050
   Max. coefficient     DIISMaxC        ....  10.000
 MO-DIIS                CNVKDIIS        .... off
 Trust-Rad. Augm. Hess. CNVTRAH         .... auto
   Auto Start mean grad. ratio tolernc. ....  1.125000
   Auto Start start iteration           ....    50
   Auto Start num. interpolation iter.  ....    10
   Max. Number of Micro iterations      ....    24
   Max. Number of Macro iterations      .... Maxiter - #DIIS iter
   Number of Davidson start vectors     ....     2
   Converg. threshold    (grad. norm)   ....   2.000e-06
   Grad. Scal. Fac. for Micro threshold ....   0.100
   Minimum threshold for Micro iter.    ....   1.000e-02
   NR start threshold (gradient norm)   ....   1.000e-04
   Initial trust radius                 ....   0.400
   Minimum AH scaling param. (alpha)    ....   1.000
   Maximum AH scaling param. (alpha)    .... 1000.000
   Quad. conv. algorithm                .... NR
   White noise on init. David. guess    .... on
   Maximum white noise                  ....   0.010
   Pseudo random numbers                .... off
   Inactive MOs                         .... canonical
   Orbital update algorithm             .... Taylor
   Preconditioner                       .... Diag
   Full preconditioner red. dimension   ....   250
 SOSCF                  CNVSOSCF        .... on
   Start iteration      SOSCFMaxIt      ....   150
   Startup grad/error   SOSCFStart      ....  0.003300
   Hessian update       SOSCFHessUp     .... L-BFGS
 Level Shifting         CNVShift        .... on
   Level shift para.    LevelShift      ....    0.2500
   Turn off err/grad.   ShiftErr        ....    0.0010
 Zerner damping         CNVZerner       .... off
 Static damping         CNVDamp         .... on
   Fraction old density DampFac         ....    0.7000
   Max. Damping (<1)    DampMax         ....    0.9800
   Min. Damping (>=0)   DampMin         ....    0.0000
   Turn off err/grad.   DampErr         ....    0.1000

SCF Procedure:
 Maximum # iterations   MaxIter         ....   400
 SCF integral mode      SCFMode         .... Direct
   Integral package                     .... SHARK and LIBINT hybrid scheme
 Reset frequency        DirectResetFreq ....    20
 Integral Threshold     Thresh          ....  1.000e-12 Eh
 Primitive CutOff       TCut            ....  1.000e-14 Eh

Convergence Tolerance:
 Convergence Check Mode ConvCheckMode   .... Total+1el-Energy
 Convergence forced     ConvForced      .... 0
 Energy Change          TolE            ....  1.000e-09 Eh
 1-El. energy change                    ....  1.000e-06 Eh
 Orbital Gradient       TolG            ....  2.000e-06
 Orbital Rotation angle TolX            ....  2.000e-06
 DIIS Error             TolErr          ....  1.000e-08

------------------------------
INITIAL GUESS: MODEL POTENTIAL
------------------------------
Loading Hartree-Fock densities                     ... done
Calculating cut-offs                               ... done
Initializing the effective Hamiltonian             ... done
Setting up the integral package (SHARK)            ... done
Starting the Coulomb interaction                   ... done (   0.0 sec)
Making the grid                                    ... done (   0.1 sec)
Mapping shells                                     ... done
Starting the XC term evaluation                    ... done (   0.0 sec)
  promolecular density results
     # of electrons  =     41.997045641
     EX              =    -32.452622324
     EC              =     -1.372056127
     EX+EC           =    -33.824678451
Transforming the Hamiltonian                       ... done (   0.0 sec)
Diagonalizing the Hamiltonian                      ... done (   0.0 sec)
Back transforming the eigenvectors                 ... done (   0.0 sec)
Now organizing SCF variables                       ... done
                      ------------------
                      INITIAL GUESS DONE (   0.2 sec)
                      ------------------
             **** ENERGY FILE WAS UPDATED (C6H6_Opt_Geom-PBE0.en.tmp) ****
Finished Guess after   0.8 sec
Maximum memory used throughout the entire GUESS-calculation: 14.2 MB


           ************************************************************
           *        Program running with 30 parallel MPI-processes    *
           *              working on a common directory               *
           ************************************************************

-------------------------------------------------------------------------------------------
                                      ORCA LEAN-SCF
                              memory conserving SCF solver
-------------------------------------------------------------------------------------------

----------------------------------------D-I-I-S--------------------------------------------
Iteration    Energy (Eh)           Delta-E    RMSDP     MaxDP     DIISErr   Damp  Time(sec)
-------------------------------------------------------------------------------------------
               ***  Starting incremental Fock matrix formation  ***
    1    -231.8907277285594546     0.00e+00  1.09e-03  2.45e-02  1.48e-01  0.700   0.8
    2    -231.9603076124614063    -6.96e-02  7.93e-04  1.60e-02  7.99e-02  0.700   0.6
                               ***Turning on AO-DIIS***
    3    -231.9912500913369513    -3.09e-02  3.57e-04  5.82e-03  3.30e-02  0.700   0.6
    4    -232.0091629271042848    -1.79e-02  6.47e-04  1.01e-02  1.91e-02  0.000   0.6
    5    -232.0474720651231451    -3.83e-02  1.11e-04  2.13e-03  3.73e-03  0.000   0.6
                              *** Initializing SOSCF ***
---------------------------------------S-O-S-C-F--------------------------------------
Iteration    Energy (Eh)           Delta-E    RMSDP     MaxDP     MaxGrad    Time(sec)
--------------------------------------------------------------------------------------
    6    -232.0476134090657183    -1.41e-04  4.69e-05  1.02e-03  5.04e-04     0.6
               *** Restarting incremental Fock matrix formation ***
    7    -232.0475778627128420     3.55e-05  4.67e-05  8.29e-04  1.08e-04     0.7
    8    -232.0475782447864503    -3.82e-07  7.80e-06  1.25e-04  2.47e-05     0.6
    9    -232.0475782569045577    -1.21e-08  2.18e-06  4.18e-05  1.76e-05     0.6
   10    -232.0475782647119445    -7.81e-09  7.70e-07  1.35e-05  5.56e-06     0.6
   11    -232.0475782651689087    -4.57e-10  3.75e-07  6.82e-06  2.03e-06     0.6
                 **** Energy Check signals convergence ****

               *****************************************************
               *                     SUCCESS                       *
               *           SCF CONVERGED AFTER  11 CYCLES          *
               *****************************************************

Recomputing exchange energy using gridx3       ... done (    0.926 sec)
Old exchange energy                            :     -8.320380838 Eh
New exchange energy                            :     -8.320349503 Eh
Exchange energy change after final integration :      0.000031335 Eh
Total energy after final integration           :   -232.047546930 Eh
             **** ENERGY FILE WAS UPDATED (C6H6_Opt_Geom-PBE0.en.tmp) ****

----------------
TOTAL SCF ENERGY
----------------

Total Energy       :       -232.04754693007882 Eh           -6314.33477 eV

Components:
Nuclear Repulsion  :        204.95775994435201 Eh            5577.18419 eV
Electronic Energy  :       -437.00533820952091 Eh          -11891.51981 eV
One Electron Energy:       -717.21033940916845 Eh          -19516.28552 eV
Two Electron Energy:        280.20500119964754 Eh            7624.76572 eV

Virial components:
Potential Energy   :       -463.04438094942145 Eh          -12600.07818 eV
Kinetic Energy     :        230.99683401934266 Eh            6285.74341 eV
Virial Ratio       :          2.00454860308020

DFT components:
N(Alpha)           :       21.000019795556 electrons
N(Beta)            :       21.000019795556 electrons
N(Total)           :       42.000039591113 electrons
E(X)               :      -24.869142448488 Eh       
E(C)               :       -1.378001090013 Eh       
E(XC)              :      -26.247143538501 Eh       

---------------
SCF CONVERGENCE
---------------

  Last Energy change         ...    4.5696e-10  Tolerance :   1.0000e-09
  Last MAX-Density change    ...    6.8245e-06  Tolerance :   1.0000e-08
  Last RMS-Density change    ...    3.7489e-07  Tolerance :   1.0000e-09
  Last DIIS Error            ...    5.0423e-04  Tolerance :   1.0000e-08
  Last Orbital Gradient      ...    2.0324e-06  Tolerance :   2.0000e-06
  Last Orbital Rotation      ...    1.7587e-06  Tolerance :   2.0000e-06


----------------
ORBITAL ENERGIES
----------------

  NO   OCC          E(Eh)            E(eV) 
   0   2.0000     -10.225481      -278.2495 
   1   2.0000     -10.225206      -278.2420 
   2   2.0000     -10.225200      -278.2418 
   3   2.0000     -10.224545      -278.2240 
   4   2.0000     -10.224539      -278.2238 
   5   2.0000     -10.224231      -278.2155 
   6   2.0000      -0.885751       -24.1025 
   7   2.0000      -0.772148       -21.0112 
   8   2.0000      -0.772143       -21.0111 
   9   2.0000      -0.623811       -16.9748 
  10   2.0000      -0.623811       -16.9748 
  11   2.0000      -0.544579       -14.8188 
  12   2.0000      -0.475184       -12.9304 
  13   2.0000      -0.464933       -12.6515 
  14   2.0000      -0.436304       -11.8724 
  15   2.0000      -0.436299       -11.8723 
  16   2.0000      -0.388038       -10.5590 
  17   2.0000      -0.355704        -9.6792 
  18   2.0000      -0.355699        -9.6791 
  19   2.0000      -0.268711        -7.3120 
  20   2.0000      -0.268702        -7.3117 
  21   0.0000      -0.006127        -0.1667 
  22   0.0000      -0.006121        -0.1666 
  23   0.0000       0.057710         1.5704 
  24   0.0000       0.092021         2.5040 
  25   0.0000       0.092026         2.5042 
  26   0.0000       0.119100         3.2409 
  27   0.0000       0.119100         3.2409 
  28   0.0000       0.141113         3.8399 
  29   0.0000       0.154790         4.2120 
  30   0.0000       0.159137         4.3303 
  31   0.0000       0.218728         5.9519 
*Only the first 10 virtual orbitals were printed.

                    ********************************
                    * MULLIKEN POPULATION ANALYSIS *
                    ********************************

-----------------------
MULLIKEN ATOMIC CHARGES
-----------------------
   0 C :   -0.121617
   1 C :   -0.121556
   2 C :   -0.122225
   3 C :   -0.121645
   4 C :   -0.121571
   5 C :   -0.122244
   6 H :    0.121778
   7 H :    0.121857
   8 H :    0.121762
   9 H :    0.121825
  10 H :    0.121871
  11 H :    0.121767
Sum of atomic charges:    0.0000000

--------------------------------
MULLIKEN REDUCED ORBITAL CHARGES
--------------------------------
  0 C s       :     3.150051  s :     3.150051
      pz      :     0.953152  p :     2.849214
      px      :     0.970740
      py      :     0.925322
      dz2     :     0.004210  d :     0.114894
      dxz     :     0.010853
      dyz     :     0.019932
      dx2y2   :     0.033035
      dxy     :     0.046864
      f0      :     0.001402  f :     0.007459
      f+1     :     0.000624
      f-1     :     0.000545
      f+2     :     0.000976
      f-2     :     0.000535
      f+3     :     0.002539
      f-3     :     0.000839

  1 C s       :     3.150024  s :     3.150024
      pz      :     0.953152  p :     2.849172
      px      :     0.970721
      py      :     0.925299
      dz2     :     0.004214  d :     0.114901
      dxz     :     0.010853
      dyz     :     0.019932
      dx2y2   :     0.033029
      dxy     :     0.046874
      f0      :     0.001402  f :     0.007459
      f+1     :     0.000624
      f-1     :     0.000545
      f+2     :     0.000976
      f-2     :     0.000535
      f+3     :     0.002539
      f-3     :     0.000839

  2 C s       :     3.151181  s :     3.151181
      pz      :     0.953018  p :     2.848631
      px      :     0.901997
      py      :     0.993616
      dz2     :     0.004235  d :     0.114955
      dxz     :     0.024477
      dyz     :     0.006289
      dx2y2   :     0.053842
      dxy     :     0.026112
      f0      :     0.001400  f :     0.007458
      f+1     :     0.000506
      f-1     :     0.000662
      f+2     :     0.000314
      f-2     :     0.001195
      f+3     :     0.002539
      f-3     :     0.000842

  3 C s       :     3.150064  s :     3.150064
      pz      :     0.953152  p :     2.849218
      px      :     0.970722
      py      :     0.925343
      dz2     :     0.004210  d :     0.114905
      dxz     :     0.010853
      dyz     :     0.019932
      dx2y2   :     0.033045
      dxy     :     0.046864
      f0      :     0.001402  f :     0.007458
      f+1     :     0.000624
      f-1     :     0.000545
      f+2     :     0.000976
      f-2     :     0.000535
      f+3     :     0.002539
      f-3     :     0.000839

  4 C s       :     3.149981  s :     3.149981
      pz      :     0.953152  p :     2.849228
      px      :     0.970764
      py      :     0.925311
      dz2     :     0.004214  d :     0.114904
      dxz     :     0.010853
      dyz     :     0.019932
      dx2y2   :     0.033028
      dxy     :     0.046877
      f0      :     0.001402  f :     0.007459
      f+1     :     0.000624
      f-1     :     0.000545
      f+2     :     0.000976
      f-2     :     0.000535
      f+3     :     0.002540
      f-3     :     0.000839

  5 C s       :     3.151188  s :     3.151188
      pz      :     0.953018  p :     2.848635
      px      :     0.901995
      py      :     0.993622
      dz2     :     0.004235  d :     0.114963
      dxz     :     0.024477
      dyz     :     0.006289
      dx2y2   :     0.053853
      dxy     :     0.026109
      f0      :     0.001400  f :     0.007458
      f+1     :     0.000506
      f-1     :     0.000662
      f+2     :     0.000314
      f-2     :     0.001195
      f+3     :     0.002539
      f-3     :     0.000842

  6 H s       :     0.840294  s :     0.840294
      pz      :     0.012488  p :     0.036123
      px      :     0.013075
      py      :     0.010559
      dz2     :     0.000046  d :     0.001805
      dxz     :     0.000530
      dyz     :     0.000186
      dx2y2   :     0.000727
      dxy     :     0.000316

  7 H s       :     0.840270  s :     0.840270
      pz      :     0.012484  p :     0.036070
      px      :     0.009303
      py      :     0.014283
      dz2     :     0.000046  d :     0.001804
      dxz     :     0.000014
      dyz     :     0.000702
      dx2y2   :     0.000110
      dxy     :     0.000932

  8 H s       :     0.840309  s :     0.840309
      pz      :     0.012488  p :     0.036124
      px      :     0.013076
      py      :     0.010560
      dz2     :     0.000046  d :     0.001805
      dxz     :     0.000530
      dyz     :     0.000186
      dx2y2   :     0.000727
      dxy     :     0.000316

  9 H s       :     0.840252  s :     0.840252
      pz      :     0.012488  p :     0.036119
      px      :     0.013072
      py      :     0.010559
      dz2     :     0.000046  d :     0.001805
      dxz     :     0.000530
      dyz     :     0.000186
      dx2y2   :     0.000727
      dxy     :     0.000316

 10 H s       :     0.840256  s :     0.840256
      pz      :     0.012484  p :     0.036070
      px      :     0.009303
      py      :     0.014283
      dz2     :     0.000046  d :     0.001804
      dxz     :     0.000014
      dyz     :     0.000702
      dx2y2   :     0.000110
      dxy     :     0.000932

 11 H s       :     0.840306  s :     0.840306
      pz      :     0.012488  p :     0.036122
      px      :     0.013074
      py      :     0.010560
      dz2     :     0.000046  d :     0.001805
      dxz     :     0.000530
      dyz     :     0.000186
      dx2y2   :     0.000727
      dxy     :     0.000316



                     *******************************
                     * LOEWDIN POPULATION ANALYSIS *
                     *******************************

----------------------
LOEWDIN ATOMIC CHARGES
----------------------
   0 C :   -0.016076
   1 C :   -0.016076
   2 C :   -0.016051
   3 C :   -0.016076
   4 C :   -0.016076
   5 C :   -0.016051
   6 H :    0.016066
   7 H :    0.016071
   8 H :    0.016066
   9 H :    0.016066
  10 H :    0.016071
  11 H :    0.016066

-------------------------------
LOEWDIN REDUCED ORBITAL CHARGES
-------------------------------
  0 C s       :     2.717030  s :     2.717030
      pz      :     0.843785  p :     2.855213
      px      :     0.995855
      py      :     1.015573
      dz2     :     0.025941  d :     0.400027
      dxz     :     0.031260
      dyz     :     0.062273
      dx2y2   :     0.125522
      dxy     :     0.155030
      f0      :     0.002402  f :     0.043806
      f+1     :     0.003258
      f-1     :     0.003586
      f+2     :     0.006279
      f-2     :     0.003455
      f+3     :     0.016684
      f-3     :     0.008143

  1 C s       :     2.717030  s :     2.717030
      pz      :     0.843785  p :     2.855212
      px      :     0.995855
      py      :     1.015573
      dz2     :     0.025941  d :     0.400027
      dxz     :     0.031260
      dyz     :     0.062273
      dx2y2   :     0.125522
      dxy     :     0.155030
      f0      :     0.002402  f :     0.043806
      f+1     :     0.003258
      f-1     :     0.003586
      f+2     :     0.006279
      f-2     :     0.003455
      f+3     :     0.016684
      f-3     :     0.008143

  2 C s       :     2.717036  s :     2.717036
      pz      :     0.843754  p :     2.855183
      px      :     1.025439
      py      :     0.985990
      dz2     :     0.025941  d :     0.400027
      dxz     :     0.077779
      dyz     :     0.015752
      dx2y2   :     0.169787
      dxy     :     0.110768
      f0      :     0.002402  f :     0.043805
      f+1     :     0.003750
      f-1     :     0.003094
      f+2     :     0.002044
      f-2     :     0.007690
      f+3     :     0.016683
      f-3     :     0.008143

  3 C s       :     2.717030  s :     2.717030
      pz      :     0.843785  p :     2.855213
      px      :     0.995855
      py      :     1.015573
      dz2     :     0.025941  d :     0.400027
      dxz     :     0.031260
      dyz     :     0.062273
      dx2y2   :     0.125523
      dxy     :     0.155030
      f0      :     0.002402  f :     0.043806
      f+1     :     0.003258
      f-1     :     0.003586
      f+2     :     0.006279
      f-2     :     0.003455
      f+3     :     0.016684
      f-3     :     0.008143

  4 C s       :     2.717030  s :     2.717030
      pz      :     0.843785  p :     2.855212
      px      :     0.995855
      py      :     1.015573
      dz2     :     0.025941  d :     0.400027
      dxz     :     0.031260
      dyz     :     0.062273
      dx2y2   :     0.125522
      dxy     :     0.155030
      f0      :     0.002402  f :     0.043806
      f+1     :     0.003258
      f-1     :     0.003586
      f+2     :     0.006279
      f-2     :     0.003455
      f+3     :     0.016684
      f-3     :     0.008143

  5 C s       :     2.717036  s :     2.717036
      pz      :     0.843754  p :     2.855182
      px      :     1.025439
      py      :     0.985990
      dz2     :     0.025941  d :     0.400027
      dxz     :     0.077779
      dyz     :     0.015752
      dx2y2   :     0.169787
      dxy     :     0.110768
      f0      :     0.002402  f :     0.043805
      f+1     :     0.003750
      f-1     :     0.003094
      f+2     :     0.002044
      f-2     :     0.007690
      f+3     :     0.016683
      f-3     :     0.008143

  6 H s       :     0.804005  s :     0.804005
      pz      :     0.042028  p :     0.150812
      px      :     0.063943
      py      :     0.044840
      dz2     :     0.002590  d :     0.029117
      dxz     :     0.006375
      dyz     :     0.002155
      dx2y2   :     0.009314
      dxy     :     0.008683

  7 H s       :     0.804004  s :     0.804004
      pz      :     0.042025  p :     0.150808
      px      :     0.035288
      py      :     0.073496
      dz2     :     0.002590  d :     0.029117
      dxz     :     0.000045
      dyz     :     0.008485
      dx2y2   :     0.008368
      dxy     :     0.009629

  8 H s       :     0.804005  s :     0.804005
      pz      :     0.042028  p :     0.150812
      px      :     0.063943
      py      :     0.044840
      dz2     :     0.002590  d :     0.029117
      dxz     :     0.006375
      dyz     :     0.002155
      dx2y2   :     0.009314
      dxy     :     0.008683

  9 H s       :     0.804005  s :     0.804005
      pz      :     0.042028  p :     0.150811
      px      :     0.063943
      py      :     0.044840
      dz2     :     0.002590  d :     0.029117
      dxz     :     0.006375
      dyz     :     0.002155
      dx2y2   :     0.009314
      dxy     :     0.008683

 10 H s       :     0.804003  s :     0.804003
      pz      :     0.042025  p :     0.150808
      px      :     0.035288
      py      :     0.073496
      dz2     :     0.002590  d :     0.029117
      dxz     :     0.000045
      dyz     :     0.008485
      dx2y2   :     0.008368
      dxy     :     0.009629

 11 H s       :     0.804005  s :     0.804005
      pz      :     0.042028  p :     0.150812
      px      :     0.063943
      py      :     0.044840
      dz2     :     0.002590  d :     0.029117
      dxz     :     0.006375
      dyz     :     0.002155
      dx2y2   :     0.009314
      dxy     :     0.008683



                      *****************************
                      * MAYER POPULATION ANALYSIS *
                      *****************************

  NA   - Mulliken gross atomic population
  ZA   - Total nuclear charge
  QA   - Mulliken gross atomic charge
  VA   - Mayer's total valence
  BVA  - Mayer's bonded valence
  FA   - Mayer's free valence

  ATOM       NA         ZA         QA         VA         BVA        FA
  0 C      6.1216     6.0000    -0.1216     4.0032     4.0032     0.0000
  1 C      6.1216     6.0000    -0.1216     4.0030     4.0030     0.0000
  2 C      6.1222     6.0000    -0.1222     4.0024     4.0024     0.0000
  3 C      6.1216     6.0000    -0.1216     4.0032     4.0032     0.0000
  4 C      6.1216     6.0000    -0.1216     4.0031     4.0031     0.0000
  5 C      6.1222     6.0000    -0.1222     4.0025     4.0025     0.0000
  6 H      0.8782     1.0000     0.1218     0.9997     0.9997     0.0000
  7 H      0.8781     1.0000     0.1219     0.9998     0.9998     0.0000
  8 H      0.8782     1.0000     0.1218     0.9998     0.9998     0.0000
  9 H      0.8782     1.0000     0.1218     0.9997     0.9997     0.0000
 10 H      0.8781     1.0000     0.1219     0.9998     0.9998    -0.0000
 11 H      0.8782     1.0000     0.1218     0.9997     0.9997    -0.0000

  Mayer bond orders larger than 0.100000
B(  0-C ,  1-C ) :   1.4514 B(  0-C ,  5-C ) :   1.4507 B(  0-C , 11-H ) :   0.9613 
B(  1-C ,  2-C ) :   1.4506 B(  1-C ,  6-H ) :   0.9613 B(  2-C ,  3-C ) :   1.4507 
B(  2-C ,  7-H ) :   0.9614 B(  3-C ,  4-C ) :   1.4514 B(  3-C ,  8-H ) :   0.9613 
B(  4-C ,  5-C ) :   1.4507 B(  4-C ,  9-H ) :   0.9612 B(  5-C , 10-H ) :   0.9614 


-------
TIMINGS
-------

Total SCF time: 0 days 0 hours 0 min 8 sec 

Total time                  ....       8.591 sec
Sum of individual times     ....       8.548 sec  ( 99.5%)

SCF preparation             ....       0.600 sec  (  7.0%)
Fock matrix formation       ....       6.930 sec  ( 80.7%)
  Startup                   ....       0.038 sec  (  0.5% of F)
  Split-RI-J                ....       0.627 sec  (  9.0% of F)
  Chain of spheres X        ....       5.077 sec  ( 73.3% of F)
  XC integration            ....       1.065 sec  ( 15.4% of F)
    XC Preparation          ....       0.000 sec  (  0.0% of XC)
    Basis function eval.    ....       0.202 sec  ( 19.0% of XC)
    Density eval.           ....       0.286 sec  ( 26.9% of XC)
    XC-Functional eval.     ....       0.017 sec  (  1.6% of XC)
    XC-Potential eval.      ....       0.361 sec  ( 33.9% of XC)
Diagonalization             ....       0.000 sec  (  0.0%)
Density matrix formation    ....       0.103 sec  (  1.2%)
Total Energy calculation    ....       0.063 sec  (  0.7%)
Population analysis         ....       0.065 sec  (  0.8%)
Orbital Transformation      ....       0.102 sec  (  1.2%)
Orbital Orthonormalization  ....       0.000 sec  (  0.0%)
DIIS solution               ....       0.465 sec  (  5.4%)
SOSCF solution              ....       0.222 sec  (  2.6%)
Finished LeanSCF after   8.6 sec

Maximum memory used throughout the entire LEANSCF-calculation: 23.4 MB

-------------------------   --------------------
FINAL SINGLE POINT ENERGY      -232.047546930079
-------------------------   --------------------



           ************************************************************
           *        Program running with 30 parallel MPI-processes    *
           *              working on a common directory               *
           ************************************************************
------------------------------------------------------------------------------
                         ORCA SCF GRADIENT CALCULATION
------------------------------------------------------------------------------

Nuc. rep. gradient        (SHARK) ... done (  0.0 sec)
HCore & Overlap gradient  (SHARK) ... done (  0.0 sec)
Split-RIJ-J gradient      (SHARK) ... done (  0.2 sec)
COSX-gradient                     ... done (  4.2 sec)
XC gradient                       ... done (  0.5 sec)

------------------
CARTESIAN GRADIENT
------------------

   1   C   :    0.000226855   -0.000165984   -0.000000009
   2   C   :    0.000226856    0.000166081    0.000000016
   3   C   :    0.000000011    0.000299101   -0.000000019
   4   C   :   -0.000226878    0.000165969    0.000000002
   5   C   :   -0.000226806   -0.000166005   -0.000000021
   6   C   :   -0.000000004   -0.000299143    0.000000027
   7   H   :    0.002854196    0.001652773   -0.000000002
   8   H   :    0.000000041    0.003291747    0.000000010
   9   H   :   -0.002854192    0.001652751    0.000000001
  10   H   :   -0.002854229   -0.001652780   -0.000000001
  11   H   :   -0.000000041   -0.003291752   -0.000000000
  12   H   :    0.002854191   -0.001652758   -0.000000005

Difference to translation invariance:
           :    0.0000000000   -0.0000000000   -0.0000000000

Difference to rotation invariance:
           :   -0.0000000014    0.0000000266   -0.0000000515

Norm of the Cartesian gradient     ...    0.0081042374
RMS gradient                       ...    0.0013507062
MAX gradient                       ...    0.0032917524

-------
TIMINGS
-------

Total SCF gradient time     ....        5.076 sec

Densities                   ....       0.002 sec  (  0.0%)
One electron gradient       ....       0.041 sec  (  0.8%)
RI-J Coulomb gradient       ....       0.245 sec  (  4.8%)
COSX gradient               ....       4.239 sec  ( 83.5%)
XC gradient                 ....       0.548 sec  ( 10.8%)

Maximum memory used throughout the entire SCFGRAD-calculation: 29.8 MB
------------------------------------------------------------------------------
                         ORCA GEOMETRY RELAXATION STEP
------------------------------------------------------------------------------

Reading the OPT-File                    .... done
Getting information on internals        .... done
Copying old internal coords+grads       .... done
Making the new internal coordinates     .... (2022 redundants) done
Validating the new internal coordinates .... (2022 redundants) done
Calculating the B-matrix                .... done
Calculating the G,G- and P matrices     .... done
Transforming gradient to internals      .... done
Projecting the internal gradient        .... done
Number of atoms                         ....  12
Number of internal coordinates          ....  54
Current Energy                          ....  -232.047546930 Eh
Current gradient norm                   ....     0.008104237 Eh/bohr
Maximum allowed component of the step   ....  0.300
Current trust radius                    ....  0.300
Evaluating the initial hessian          ....  (Almloef) done
Projecting the Hessian                  .... done
Forming the augmented Hessian           .... done
Diagonalizing the augmented Hessian     .... done
Last element of RFO vector              ....  0.999674417
Lowest eigenvalues of augmented Hessian:
 -0.000294243  0.028280291  0.028280291  0.028280336  0.028280336
Length of the computed step             ....  0.025524183
The final length of the internal step   ....  0.025524183
Converting the step to Cartesian space:
 Initial RMS(Int)=    0.0034734013
Transforming coordinates:
 Iter   0:  RMS(Cart)=    0.0063060474 RMS(Int)=    2.4184016160
done
Storing new coordinates                 .... done

                                .--------------------.
          ----------------------|Geometry convergence|-------------------------
          Item                value                   Tolerance       Converged
          ---------------------------------------------------------------------
          RMS gradient        0.0016226109            0.0000100000      NO
          MAX gradient        0.0036142319            0.0001000000      NO
          RMS step            0.0034734013            0.0000100000      NO
          MAX step            0.0087862454            0.0001000000      NO
          ........................................................
          Max(Bonds)      0.0046      Max(Angles)    0.00
          Max(Dihed)        0.00      Max(Improp)    0.00
          ---------------------------------------------------------------------

The optimization has not yet converged - more geometry cycles are needed


    ---------------------------------------------------------------------------
                         Redundant Internal Coordinates
                            (Angstroem and degrees)

        Definition                    Value    dE/dq     Step     New-Value
    ----------------------------------------------------------------------------
     1. B(C   1,C   0)                1.3843 -0.003614  0.0030    1.3873   
     2. B(C   2,C   1)                1.3843 -0.003566  0.0030    1.3872   
     3. B(C   3,C   2)                1.3843 -0.003566  0.0030    1.3872   
     4. B(C   4,C   3)                1.3843 -0.003614  0.0030    1.3873   
     5. B(C   5,C   4)                1.3843 -0.003566  0.0030    1.3872   
     6. B(C   5,C   0)                1.3843 -0.003566  0.0030    1.3872   
     7. B(H   6,C   1)                1.0789 -0.003298  0.0046    1.0835   
     8. B(H   7,C   2)                1.0789 -0.003292  0.0046    1.0835   
     9. B(H   8,C   3)                1.0789 -0.003298  0.0046    1.0835   
    10. B(H   9,C   4)                1.0789 -0.003298  0.0046    1.0835   
    11. B(H  10,C   5)                1.0789 -0.003292  0.0046    1.0835   
    12. B(H  11,C   0)                1.0789 -0.003298  0.0046    1.0835   
    13. A(C   1,C   0,H  11)          120.00 -0.000001    0.00    120.00   
    14. A(C   5,C   0,H  11)          120.00  0.000008   -0.00    120.00   
    15. A(C   1,C   0,C   5)          120.00 -0.000007    0.00    120.00   
    16. A(C   0,C   1,C   2)          120.00 -0.000007    0.00    120.00   
    17. A(C   2,C   1,H   6)          120.00  0.000008   -0.00    120.00   
    18. A(C   0,C   1,H   6)          120.00 -0.000001    0.00    120.00   
    19. A(C   3,C   2,H   7)          120.00 -0.000007    0.00    120.00   
    20. A(C   1,C   2,H   7)          120.00 -0.000007    0.00    120.00   
    21. A(C   1,C   2,C   3)          120.00  0.000015   -0.00    120.00   
    22. A(C   2,C   3,C   4)          120.00 -0.000007    0.00    120.00   
    23. A(C   4,C   3,H   8)          120.00 -0.000001    0.00    120.00   
    24. A(C   2,C   3,H   8)          120.00  0.000008   -0.00    120.00   
    25. A(C   5,C   4,H   9)          120.00  0.000008   -0.00    120.00   
    26. A(C   3,C   4,H   9)          120.00 -0.000001    0.00    120.00   
    27. A(C   3,C   4,C   5)          120.00 -0.000007    0.00    120.00   
    28. A(C   0,C   5,H  10)          120.00 -0.000007    0.00    120.00   
    29. A(C   0,C   5,C   4)          120.00  0.000015   -0.00    120.00   
    30. A(C   4,C   5,H  10)          120.00 -0.000007    0.00    120.00   
    31. D(H   6,C   1,C   0,C   5)    180.00 -0.000000    0.00    180.00   
    32. D(H   6,C   1,C   0,H  11)      0.00 -0.000000    0.00      0.00   
    33. D(C   2,C   1,C   0,H  11)    180.00 -0.000000    0.00    180.00   
    34. D(C   2,C   1,C   0,C   5)      0.00 -0.000000    0.00      0.00   
    35. D(H   7,C   2,C   1,C   0)    180.00 -0.000000    0.00    180.00   
    36. D(C   3,C   2,C   1,C   0)      0.00  0.000000   -0.00     -0.00   
    37. D(C   3,C   2,C   1,H   6)    180.00 -0.000000    0.00    180.00   
    38. D(H   7,C   2,C   1,H   6)      0.00 -0.000000    0.00      0.00   
    39. D(H   8,C   3,C   2,H   7)      0.00  0.000000   -0.00     -0.00   
    40. D(H   8,C   3,C   2,C   1)    180.00 -0.000000    0.00    180.00   
    41. D(C   4,C   3,C   2,H   7)    180.00  0.000000   -0.00    180.00   
    42. D(C   4,C   3,C   2,C   1)      0.00  0.000000   -0.00     -0.00   
    43. D(H   9,C   4,C   3,C   2)    180.00 -0.000000    0.00    180.00   
    44. D(C   5,C   4,C   3,H   8)    180.00  0.000000   -0.00    180.00   
    45. D(C   5,C   4,C   3,C   2)      0.00  0.000000   -0.00     -0.00   
    46. D(H   9,C   4,C   3,H   8)      0.00  0.000000   -0.00     -0.00   
    47. D(H  10,C   5,C   4,H   9)      0.00  0.000000   -0.00     -0.00   
    48. D(C   0,C   5,C   4,H   9)    180.00 -0.000000    0.00    180.00   
    49. D(C   0,C   5,C   4,C   3)      0.00 -0.000000    0.00      0.00   
    50. D(H  10,C   5,C   0,H  11)      0.00  0.000000   -0.00     -0.00   
    51. D(H  10,C   5,C   0,C   1)    180.00  0.000000   -0.00    180.00   
    52. D(H  10,C   5,C   4,C   3)    180.00 -0.000000    0.00    180.00   
    53. D(C   4,C   5,C   0,H  11)    180.00  0.000000   -0.00    180.00   
    54. D(C   4,C   5,C   0,C   1)      0.00  0.000000   -0.00     -0.00   
    ----------------------------------------------------------------------------

Geometry step timings:
Preparation and reading OPT file:      0.000 s (12.038 %)
Internal coordinates            :      0.000 s ( 1.376 %)
B/P matrices and projection     :      0.001 s (22.528 %)
Hessian update/contruction      :      0.000 s (13.801 %)
Making the step                 :      0.000 s (18.702 %)
Converting the step to Cartesian:      0.000 s ( 2.923 %)
Storing new data                :      0.000 s ( 1.591 %)
Checking convergence            :      0.000 s ( 0.129 %)
Final printing                  :      0.001 s (26.655 %)
Total time                      :      0.002 s

Time for energy+gradient        :     18.119 s
Time for complete geometry iter :     19.031 s

         *************************************************************
         *                GEOMETRY OPTIMIZATION CYCLE   2            *
         *************************************************************
---------------------------------
CARTESIAN COORDINATES (ANGSTROEM)
---------------------------------
  C     -1.201350    0.693626    0.000000
  C     -1.201350   -0.693627   -0.000000
  C     -0.000000   -1.387251    0.000000
  C      1.201350   -0.693626    0.000000
  C      1.201350    0.693627    0.000000
  C      0.000000    1.387251   -0.000000
  H     -2.139727   -1.235403    0.000000
  H     -0.000000   -2.470790   -0.000000
  H      2.139727   -1.235403    0.000000
  H      2.139727    1.235403    0.000000
  H      0.000000    2.470790   -0.000000
  H     -2.139727    1.235403    0.000000

----------------------------
CARTESIAN COORDINATES (A.U.)
----------------------------
  NO LB      ZA    FRAG     MASS         X           Y           Z
   0 C     6.0000    0    12.011   -2.270222    1.310764    0.000000
   1 C     6.0000    0    12.011   -2.270222   -1.310764   -0.000000
   2 C     6.0000    0    12.011   -0.000000   -2.621525    0.000000
   3 C     6.0000    0    12.011    2.270222   -1.310764    0.000000
   4 C     6.0000    0    12.011    2.270222    1.310764    0.000000
   5 C     6.0000    0    12.011    0.000000    2.621525   -0.000000
   6 H     1.0000    0     1.008   -4.043498   -2.334574    0.000000
   7 H     1.0000    0     1.008   -0.000000   -4.669116   -0.000000
   8 H     1.0000    0     1.008    4.043498   -2.334574    0.000000
   9 H     1.0000    0     1.008    4.043498    2.334574    0.000000
  10 H     1.0000    0     1.008    0.000000    4.669116   -0.000000
  11 H     1.0000    0     1.008   -4.043498    2.334574    0.000000

--------------------------------
INTERNAL COORDINATES (ANGSTROEM)
--------------------------------
 C      0   0   0     0.000000000000     0.00000000     0.00000000
 C      1   0   0     1.387253023455     0.00000000     0.00000000
 C      2   1   0     1.387211759328   120.00089722     0.00000000
 C      3   2   1     1.387211834210   119.99819984     0.00000000
 C      4   3   2     1.387252987689   120.00090212     0.00000000
 C      5   4   3     1.387211772112   120.00090027     0.00000000
 H      2   1   3     1.083547037142   120.00020488   179.99999495
 H      3   2   1     1.083538255497   120.00089308   180.00000744
 H      4   3   2     1.083547016909   119.99889777   180.00000283
 H      5   4   3     1.083547081908   120.00020166   180.00000226
 H      6   5   4     1.083538262662   120.00089468   180.00000226
 H      1   2   3     1.083547020483   120.00020052   180.00000678

---------------------------
INTERNAL COORDINATES (A.U.)
---------------------------
 C      0   0   0     0.000000000000     0.00000000     0.00000000
 C      1   0   0     2.621528292784     0.00000000     0.00000000
 C      2   1   0     2.621450314884   120.00089722     0.00000000
 C      3   2   1     2.621450456391   119.99819984     0.00000000
 C      4   3   2     2.621528225196   120.00090212     0.00000000
 C      5   4   3     2.621450339043   120.00090027     0.00000000
 H      2   1   3     2.047607153420   120.00020488   179.99999495
 H      3   2   1     2.047590558517   120.00089308   180.00000744
 H      4   3   2     2.047607115185   119.99889777   180.00000283
 H      5   4   3     2.047607238016   120.00020166   180.00000226
 H      6   5   4     2.047590572055   120.00089468   180.00000226
 H      1   2   3     2.047607121939   120.00020052   180.00000678



           ************************************************************
           *        Program running with 30 parallel MPI-processes    *
           *              working on a common directory               *
           ************************************************************
------------------------------------------------------------------------------
                   ___                                                        
                  /   \      - P O W E R E D   B Y -                         
                 /     \                                                     
                 |  |  |   _    _      __       _____    __    __             
                 |  |  |  | |  | |    /  \     |  _  \  |  |  /  |          
                  \  \/   | |  | |   /    \    | | | |  |  | /  /          
                 / \  \   | |__| |  /  /\  \   | |_| |  |  |/  /          
                |  |  |   |  __  | /  /__\  \  |    /   |      \           
                |  |  |   | |  | | |   __   |  |    \   |  |\   \          
                \     /   | |  | | |  |  |  |  | |\  \  |  | \   \       
                 \___/    |_|  |_| |__|  |__|  |_| \__\ |__|  \__/        
                                                                              
                      - O R C A' S   B I G   F R I E N D -                    
                                      &                                       
                       - I N T E G R A L  F E E D E R -                       
                                                                              
 v1 FN, 2020, v2 2021, v3 2022-2024                                           
------------------------------------------------------------------------------


----------------------
SHARK INTEGRAL PACKAGE
----------------------

Number of atoms                             ...     12
Number of basis functions                   ...    270
Number of shells                            ...    102
Maximum angular momentum                    ...      3
Integral batch strategy                     ... SHARK/LIBINT Hybrid
RI-J (if used) integral strategy            ... SPLIT-RIJ (Revised 2003 algorithm where possible)
Printlevel                                  ...      1
Contraction scheme used                     ... SEGMENTED contraction
Prescreening option                         ... SCHWARTZ
   Thresh                                   ... 1.000e-12
   Tcut                                     ... 1.000e-14
   Tpresel                                  ... 1.000e-14 
Coulomb Range Separation                    ... NOT USED
Exchange Range Separation                   ... NOT USED
Multipole approximations                    ... NOT USED
Finite Nucleus Model                        ... NOT USED
CABS basis                                  ... NOT available
Auxiliary Coulomb fitting basis             ... AVAILABLE
   # of basis functions in Aux-J            ...    360
   # of shells in Aux-J                     ...    120
   Maximum angular momentum in Aux-J        ...      4
Auxiliary J/K fitting basis                 ... NOT available
Auxiliary Correlation fitting basis         ... NOT available
Auxiliary 'external' fitting basis          ... NOT available

Checking pre-screening integrals            ... done (  0.0 sec) Dimension = 102
Check shell pair data                       ... done (  0.0 sec)
Shell pair information
Shell pair cut-off parameter TPreSel        ...   1.0e-14
Total number of shell pairs                 ...      5253
Shell pairs after pre-screening             ...      5046
Total number of primitive shell pairs       ...     14346
Primitive shell pairs kept                  ...     11319
          la=0 lb=0:   1095 shell pairs
          la=1 lb=0:   1386 shell pairs
          la=1 lb=1:    456 shell pairs
          la=2 lb=0:    822 shell pairs
          la=2 lb=1:    522 shell pairs
          la=2 lb=2:    168 shell pairs
          la=3 lb=0:    288 shell pairs
          la=3 lb=1:    180 shell pairs
          la=3 lb=2:    108 shell pairs
          la=3 lb=3:     21 shell pairs

Calculating one electron integrals          ... done (  0.0 sec)
Calculating RI/J V-Matrix + Cholesky decomp.... done (  0.0 sec)
Calculating Nuclear repulsion               ... done (  0.0 sec) ENN=    204.452683782082 Eh

Diagonalization of the overlap matrix:
Smallest eigenvalue                        ... 9.875e-06
Time for diagonalization                   ...    0.015 sec
Threshold for overlap eigenvalues          ... 1.000e-07
Number of eigenvalues below threshold      ... 0
Time for construction of square roots      ...    0.009 sec
Total time needed                          ...    0.027 sec

-------------------
DFT GRID GENERATION
-------------------

General Integration Accuracy     IntAcc      ... 4.388
Radial Grid Type                 RadialGrid  ... OptM3 with GC (2021)
Angular Grid (max. ang.)         AngularGrid ... 4 (Lebedev-302)
Angular grid pruning method      GridPruning ... 4 (adaptive)
Weight generation scheme         WeightScheme... mBecke (2022)
Basis function cutoff            BFCut       ... 1.0000e-12
Integration weight cutoff        WCut        ... 1.0000e-14
Partially contracted basis set               ... off
Rotationally invariant grid construction     ... off
[...]

  5 C s       :     3.153665  s :     3.153665
      pz      :     0.953350  p :     2.846449
      px      :     0.900917
      py      :     0.992182
      dz2     :     0.004238  d :     0.114438
      dxz     :     0.024323
      dyz     :     0.006250
      dx2y2   :     0.053566
      dxy     :     0.026061
      f0      :     0.001389  f :     0.007422
      f+1     :     0.000513
      f-1     :     0.000664
      f+2     :     0.000311
      f-2     :     0.001184
      f+3     :     0.002497
      f-3     :     0.000863

  6 H s       :     0.840803  s :     0.840803
      pz      :     0.012383  p :     0.035859
      px      :     0.013010
      py      :     0.010466
      dz2     :     0.000049  d :     0.001797
      dxz     :     0.000525
      dyz     :     0.000184
      dx2y2   :     0.000718
      dxy     :     0.000320

  7 H s       :     0.840750  s :     0.840750
      pz      :     0.012378  p :     0.035807
      px      :     0.009196
      py      :     0.014232
      dz2     :     0.000049  d :     0.001796
      dxz     :     0.000014
      dyz     :     0.000695
      dx2y2   :     0.000120
      dxy     :     0.000917

  8 H s       :     0.840792  s :     0.840792
      pz      :     0.012383  p :     0.035858
      px      :     0.013009
      py      :     0.010467
      dz2     :     0.000049  d :     0.001797
      dxz     :     0.000525
      dyz     :     0.000184
      dx2y2   :     0.000718
      dxy     :     0.000320

  9 H s       :     0.840802  s :     0.840802
      pz      :     0.012383  p :     0.035861
      px      :     0.013011
      py      :     0.010467
      dz2     :     0.000049  d :     0.001797
      dxz     :     0.000525
      dyz     :     0.000184
      dx2y2   :     0.000718
      dxy     :     0.000320

 10 H s       :     0.840643  s :     0.840643
      pz      :     0.012378  p :     0.035800
      px      :     0.009197
      py      :     0.014224
      dz2     :     0.000049  d :     0.001795
      dxz     :     0.000014
      dyz     :     0.000695
      dx2y2   :     0.000120
      dxy     :     0.000917

 11 H s       :     0.840795  s :     0.840795
      pz      :     0.012383  p :     0.035860
      px      :     0.013010
      py      :     0.010467
      dz2     :     0.000049  d :     0.001797
      dxz     :     0.000525
      dyz     :     0.000184
      dx2y2   :     0.000718
      dxy     :     0.000320



                     *******************************
                     * LOEWDIN POPULATION ANALYSIS *
                     *******************************

----------------------
LOEWDIN ATOMIC CHARGES
----------------------
   0 C :   -0.017863
   1 C :   -0.017863
   2 C :   -0.017858
   3 C :   -0.017863
   4 C :   -0.017863
   5 C :   -0.017858
   6 H :    0.017860
   7 H :    0.017865
   8 H :    0.017860
   9 H :    0.017860
  10 H :    0.017865
  11 H :    0.017860

-------------------------------
LOEWDIN REDUCED ORBITAL CHARGES
-------------------------------
  0 C s       :     2.720218  s :     2.720218
      pz      :     0.845368  p :     2.856903
      px      :     0.995908
      py      :     1.015627
      dz2     :     0.025765  d :     0.397538
      dxz     :     0.031013
      dyz     :     0.061803
      dx2y2   :     0.124862
      dxy     :     0.154094
      f0      :     0.002379  f :     0.043204
      f+1     :     0.003240
      f-1     :     0.003573
      f+2     :     0.006195
      f-2     :     0.003408
      f+3     :     0.016371
      f-3     :     0.008039

  1 C s       :     2.720218  s :     2.720218
      pz      :     0.845367  p :     2.856903
      px      :     0.995908
      py      :     1.015628
      dz2     :     0.025765  d :     0.397538
      dxz     :     0.031013
      dyz     :     0.061803
      dx2y2   :     0.124862
      dxy     :     0.154094
      f0      :     0.002379  f :     0.043204
      f+1     :     0.003240
      f-1     :     0.003573
      f+2     :     0.006195
      f-2     :     0.003408
      f+3     :     0.016371
      f-3     :     0.008039

  2 C s       :     2.720215  s :     2.720215
      pz      :     0.845330  p :     2.856882
      px      :     1.025521
      py      :     0.986032
      dz2     :     0.025766  d :     0.397553
      dxz     :     0.077203
      dyz     :     0.015615
      dx2y2   :     0.168732
      dxy     :     0.110238
      f0      :     0.002379  f :     0.043207
      f+1     :     0.003739
      f-1     :     0.003074
      f+2     :     0.002014
      f-2     :     0.007589
      f+3     :     0.016372
      f-3     :     0.008040

  3 C s       :     2.720218  s :     2.720218
      pz      :     0.845367  p :     2.856903
      px      :     0.995908
      py      :     1.015627
      dz2     :     0.025765  d :     0.397538
      dxz     :     0.031013
      dyz     :     0.061803
      dx2y2   :     0.124862
      dxy     :     0.154094
      f0      :     0.002379  f :     0.043204
      f+1     :     0.003240
      f-1     :     0.003573
      f+2     :     0.006195
      f-2     :     0.003408
      f+3     :     0.016371
      f-3     :     0.008039

  4 C s       :     2.720218  s :     2.720218
      pz      :     0.845367  p :     2.856903
      px      :     0.995908
      py      :     1.015627
      dz2     :     0.025765  d :     0.397538
      dxz     :     0.031013
      dyz     :     0.061803
      dx2y2   :     0.124862
      dxy     :     0.154094
      f0      :     0.002379  f :     0.043204
      f+1     :     0.003240
      f-1     :     0.003573
      f+2     :     0.006195
      f-2     :     0.003408
      f+3     :     0.016371
      f-3     :     0.008039

  5 C s       :     2.720215  s :     2.720215
      pz      :     0.845330  p :     2.856882
      px      :     1.025521
      py      :     0.986032
      dz2     :     0.025766  d :     0.397553
      dxz     :     0.077203
      dyz     :     0.015615
      dx2y2   :     0.168732
      dxy     :     0.110238
      f0      :     0.002379  f :     0.043207
      f+1     :     0.003739
      f-1     :     0.003074
      f+2     :     0.002014
      f-2     :     0.007589
      f+3     :     0.016372
      f-3     :     0.008040

  6 H s       :     0.804161  s :     0.804161
      pz      :     0.041472  p :     0.149346
      px      :     0.063570
      py      :     0.044304
      dz2     :     0.002566  d :     0.028634
      dxz     :     0.006260
      dyz     :     0.002115
      dx2y2   :     0.009122
      dxy     :     0.008571

  7 H s       :     0.804157  s :     0.804157
      pz      :     0.041469  p :     0.149343
      px      :     0.034671
      py      :     0.073203
      dz2     :     0.002566  d :     0.028635
      dxz     :     0.000043
      dyz     :     0.008332
      dx2y2   :     0.008295
      dxy     :     0.009398

  8 H s       :     0.804161  s :     0.804161
      pz      :     0.041472  p :     0.149346
      px      :     0.063570
      py      :     0.044304
      dz2     :     0.002566  d :     0.028634
      dxz     :     0.006260
      dyz     :     0.002115
      dx2y2   :     0.009122
      dxy     :     0.008571

  9 H s       :     0.804161  s :     0.804161
      pz      :     0.041472  p :     0.149346
      px      :     0.063570
      py      :     0.044304
      dz2     :     0.002566  d :     0.028634
      dxz     :     0.006260
      dyz     :     0.002115
      dx2y2   :     0.009122
      dxy     :     0.008571

 10 H s       :     0.804156  s :     0.804156
      pz      :     0.041469  p :     0.149343
      px      :     0.034671
      py      :     0.073203
      dz2     :     0.002566  d :     0.028635
      dxz     :     0.000043
      dyz     :     0.008332
      dx2y2   :     0.008295
      dxy     :     0.009398

 11 H s       :     0.804161  s :     0.804161
      pz      :     0.041472  p :     0.149346
      px      :     0.063570
      py      :     0.044304
      dz2     :     0.002566  d :     0.028634
      dxz     :     0.006260
      dyz     :     0.002115
      dx2y2   :     0.009122
      dxy     :     0.008571



                      *****************************
                      * MAYER POPULATION ANALYSIS *
                      *****************************

  NA   - Mulliken gross atomic population
  ZA   - Total nuclear charge
  QA   - Mulliken gross atomic charge
  VA   - Mayer's total valence
  BVA  - Mayer's bonded valence
  FA   - Mayer's free valence

  ATOM       NA         ZA         QA         VA         BVA        FA
  0 C      6.1214     6.0000    -0.1214     4.0012     4.0012     0.0000
  1 C      6.1214     6.0000    -0.1214     4.0010     4.0010     0.0000
  2 C      6.1220     6.0000    -0.1220     4.0004     4.0004     0.0000
  3 C      6.1213     6.0000    -0.1213     4.0009     4.0009     0.0000
  4 C      6.1215     6.0000    -0.1215     4.0012     4.0012     0.0000
  5 C      6.1220     6.0000    -0.1220     4.0004     4.0004     0.0000
  6 H      0.8785     1.0000     0.1215     0.9994     0.9994     0.0000
  7 H      0.8784     1.0000     0.1216     0.9995     0.9995     0.0000
  8 H      0.8784     1.0000     0.1216     0.9994     0.9994     0.0000
  9 H      0.8785     1.0000     0.1215     0.9994     0.9994     0.0000
 10 H      0.8782     1.0000     0.1218     0.9994     0.9994     0.0000
 11 H      0.8785     1.0000     0.1215     0.9994     0.9994     0.0000

  Mayer bond orders larger than 0.100000
B(  0-C ,  1-C ) :   1.4505 B(  0-C ,  5-C ) :   1.4499 B(  0-C , 11-H ) :   0.9610 
B(  1-C ,  2-C ) :   1.4498 B(  1-C ,  6-H ) :   0.9611 B(  2-C ,  3-C ) :   1.4498 
B(  2-C ,  7-H ) :   0.9611 B(  3-C ,  4-C ) :   1.4505 B(  3-C ,  8-H ) :   0.9610 
B(  4-C ,  5-C ) :   1.4499 B(  4-C ,  9-H ) :   0.9611 B(  5-C , 10-H ) :   0.9610 


-------
TIMINGS
-------

Total SCF time: 0 days 0 hours 0 min 3 sec 

Total time                  ....       3.244 sec
Sum of individual times     ....       3.193 sec  ( 98.4%)

SCF preparation             ....       0.599 sec  ( 18.5%)
Fock matrix formation       ....       2.271 sec  ( 70.0%)
  Startup                   ....       0.012 sec  (  0.5% of F)
  Split-RI-J                ....       0.119 sec  (  5.3% of F)
  Chain of spheres X        ....       1.915 sec  ( 84.3% of F)
  XC integration            ....       0.205 sec  (  9.0% of F)
    XC Preparation          ....       0.000 sec  (  0.0% of XC)
    Basis function eval.    ....       0.033 sec  ( 16.3% of XC)
    Density eval.           ....       0.047 sec  ( 22.8% of XC)
    XC-Functional eval.     ....       0.003 sec  (  1.5% of XC)
    XC-Potential eval.      ....       0.070 sec  ( 34.0% of XC)
Diagonalization             ....       0.000 sec  (  0.0%)
Density matrix formation    ....       0.018 sec  (  0.5%)
Total Energy calculation    ....       0.017 sec  (  0.5%)
Population analysis         ....       0.066 sec  (  2.0%)
Orbital Transformation      ....       0.051 sec  (  1.6%)
Orbital Orthonormalization  ....       0.000 sec  (  0.0%)
DIIS solution               ....       0.084 sec  (  2.6%)
SOSCF solution              ....       0.087 sec  (  2.7%)
Finished LeanSCF after   3.3 sec

Maximum memory used throughout the entire LEANSCF-calculation: 23.9 MB

-------------------------   --------------------
FINAL SINGLE POINT ENERGY      -232.047704018341
-------------------------   --------------------

                                *** OPTIMIZATION RUN DONE ***



           ************************************************************
           *        Program running with 30 parallel MPI-processes    *
           *              working on a common directory               *
           ************************************************************

------------------------------------------------------------------------------
                              ORCA PROPERTY CALCULATIONS
------------------------------------------------------------------------------

GBWName                                 ... C6H6_Opt_Geom-PBE0.gbw
Number of atoms                         ...     12
Number of basis functions               ...    270
Max core memory                         ...   4000 MB

Electric properties:
Dipole moment                           ... YES
Quadrupole moment                       ...  NO
Static polarizability (Dipole/Dipole)   ...  NO
Static polarizability (Dipole/Quad.)    ...  NO
Static polarizability (Quad./Quad.)     ...  NO
Static polarizability (Velocity)        ...  NO

Atomic electric properties:
Dipole moment                           ...  NO
Quadrupole moment                       ...  NO
Static polarizability                   ...  NO

Choice of electric origin               ... Center of mass
Position of electric origin             ...     0.000000    -0.000000    -0.000000

General magnetic properties:
Magnetizability                         ...  NO

EPR properties:
g-Tensor (aka g-matrix)                 ...  NO
Zero-Field splitting spin-orbit         ...  NO
Zero-field splitting spin-spin          ...  NO
Hyperfine couplings                     ...  NO (   0 nuclei)
Quadrupole couplings                    ...  NO (   0 nuclei)
Contact density                         ...  NO (   0 nuclei)

NMR properties:
Chemical shifts                         ...  NO (   0 nuclei)
Spin-rotation constants                 ...  NO (   0 nuclei)
Spin-spin couplings                     ...  NO (   0 nuclei,    0 pairs)

Choice of magnetic origin               ... GIAO
Position of magnetic origin             ...     0.000000     0.000000     0.000000

Properties with geometric perturbations:
SCF Hessian                             ...  NO
IR spectrum                             ...  NO
VCD spectrum                            ...  NO
X-ray spectroscopy properties:
SCF XES/XAS/RIXS spectra                ...  NO


-------------
DIPOLE MOMENT
-------------

Method             : SCF
Type of density    : Electron Density
Multiplicity       :   1
Irrep              :   0
Energy             :  -232.0477040183411646 Eh
Relativity type    : 
Basis              : AO
                                X                 Y                 Z
Electronic contribution:      0.000000299      -0.000000115       0.000000128
Nuclear contribution   :     -0.000000228       0.000000115       0.000000161
                        -----------------------------------------
Total Dipole Moment    :      0.000000071       0.000000000       0.000000288
                        -----------------------------------------
Magnitude (a.u.)       :      0.000000297
Magnitude (Debye)      :      0.000000755



--------------------
Rotational spectrum 
--------------------
 
Rotational constants in cm-1:             0.191875             0.191856             0.095933 
Rotational constants in MHz :          5752.266444          5751.692331          2875.989687 

Dipole components along the rotational axes: 
x,y,z [a.u.] :     0.000000    -0.000000     0.000000 
x,y,z [Debye]:     0.000000    -0.000000     0.000001 

 

Dipole moment calculation done in   0.0 sec 

Maximum memory used throughout the entire PROP-calculation: 12.2 MB

--------------------------------
SUGGESTED CITATIONS FOR THIS RUN
--------------------------------

Below you find a list of papers that are relevant to this ORCA run
We neither can nor want to force you to cite these papers, but we appreciate if you do
You receive ORCA, which is the product of decades of hard work by many enthusiastic individuals, for free
The only thing we kindly ask in return is that you cite our papers,
We deeply appreciate it, if you show your appreciation for ORCA by not just citing the generic ORCA reference.

Please note that relegating all ORCA citations to the supporting information does *not* help us.
SI sections are not indexed - citations you put there will not count into any citation statistics
But we need these citations in order to attract the funding resources that allow us to do what we are doing

Therefore, if you are a happy ORCA user, please consider citing a few of the papers listed below in the main body of your paper

In addition to the list printed below, the program has created the file C6H6_Opt_Geom-PBE0.bibtex that contains the list in bibtex format
You can import this file easily into all common literature databanks and citation aid programs


List of essential papers. We consider these as the minimum necessary citations

  1. Neese,F.
     Software update: the ORCA program system, version 5.0
     WIRES Comput. Molec. Sci., 2022 12(1)e1606
     doi.org/10.1002/wcms.1606

List of papers to cite with high priority. The work reported in these papers was absolutely
necessary for this run to complete.
Our perspective: the developers of density functionals and basis sets usually get cited in chemistry papers
Good! But without the algorithms to do something with them, the functionals or basis sets would not do anything.
Hence, in our opinion, the algorithm design and method developments papers are equally worthy of getting cited

  1. Neese,F.
     An improvement of the resolution of the identity approximation for the formation of the Coulomb matrix
     J. Comp. Chem., 2003 24(14)1740-1747
     doi.org/10.1002/jcc.10318
  2. Neese,F.; Wennmohs,F.; Hansen,A.; Becker,U.
     Efficient, approximate and parallel Hartree-Fock and hybrid DFT calculations. A 'chain-of-spheres' algorithm for the Hartree-Fock exchange
     Chem. Phys., 2009 356(1-3)98-109
     doi.org/10.1016/j.chemphys.2008.10.036
  3. Helmich-Paris,B.; de Souza,B.; Neese,F.; Izsák,R.
     An improved chain of spheres for exchange algorithm
     J. Chem. Phys., 2021 155 104109
     doi.org/doi: 10.1063/5.0058766.
  4. Neese,F.
     The SHARK Integral Generation and Digestion System
     J. Comp. Chem., 2022  1-16
     doi.org/10.1002/jcc.26942

List of suggested additional citations. These are papers that are important in the 'surrounding' of 
of this run, or papers that preceded the highly important papers. If you like your results we are grateful for a citation.

  1. Izsak,R.; Neese,F.
     An overlap fitted chain of spheres exchange method
     J. Chem. Phys., 2011 135 144105
     doi.org/10.1063/1.3646921
  2. Izsak,R.; Hansen,A.; Neese,F.
     The resolution of identity and chain of spheres approximations for the LPNO-CCSD singles Fock term
     Molec. Phys., 2012 110 2413-2417
     doi.org/10.1080/00268976.2012.687466
  3. Neese,F.
     The ORCA program system
     WIRES Comput. Molec. Sci., 2012 2(1)73-78
     doi.org/10.1002/wcms.81
  4. Izsak,R.; Neese,F.; Klopper,W.
     Robust fitting techniques in the chain of spheres approximation to the Fock exchange: The role of the complementary space
     J. Chem. Phys., 2013 139 
     doi.org/10.1063/1.4819264
  5. Neese,F.
     Software update: the ORCA program system, version 4.0
     WIRES Comput. Molec. Sci., 2018 8(1)1-6
     doi.org/10.1002/wcms.1327
  6. Neese,F.; Wennmohs,F.; Becker,U.; Riplinger,C.
     The ORCA quantum chemistry program package
     J. Chem. Phys., 2020 152 Art. No. L224108
     doi.org/10.1063/5.0004608

List of optional additional citations

  1. Neese,F.
     Approximate second-order SCF convergence for spin unrestricted wavefunctions
     Chem. Phys. Lett., 2000 325(1-3)93-98
     doi.org/10.1016/s0009-2614(00)00662-x

Timings for individual modules:

Sum of individual times          ...       68.007 sec (=   1.133 min)
Startup calculation              ...        9.280 sec (=   0.155 min)  13.6 %
SCF iterations                   ...       33.328 sec (=   0.555 min)  49.0 %
Property calculations            ...        0.978 sec (=   0.016 min)   1.4 %
SCF Gradient evaluation          ...       24.403 sec (=   0.407 min)  35.9 %
Geometry relaxation              ...        0.018 sec (=   0.000 min)   0.0 %
                             ****ORCA TERMINATED NORMALLY****
TOTAL RUN TIME: 0 days 0 hours 1 minutes 12 seconds 564 msec
