
                                 *****************
                                 * O   R   C   A *
                                 *****************

                                            #,                                       
                                            ###                                      
                                            ####                                     
                                            #####                                    
                                            ######                                   
                                           ########,                                 
                                     ,,################,,,,,                         
                               ,,#################################,,                 
                          ,,##########################################,,             
                       ,#########################################, ''#####,          
                    ,#############################################,,   '####,        
                  ,##################################################,,,,####,       
                ,###########''''           ''''###############################       
              ,#####''   ,,,,##########,,,,          '''####'''          '####       
            ,##' ,,,,###########################,,,                        '##       
           ' ,,###''''                  '''############,,,                           
         ,,##''                                '''############,,,,        ,,,,,,###''
      ,#''                                            '''#######################'''  
     '                                                          ''''####''''         
             ,#######,   #######,   ,#######,      ##                                
            ,#'     '#,  ##    ##  ,#'     '#,    #''#        ,####,   ,####,        
            ##       ##  ##   ,#'  ##            #'  '#       #'       #'  '#        
            ##       ##  #######   ##           ,######,      #####,   #    #        
            '#,     ,#'  ##    ##  '#,     ,#' ,#      #,     #,   #   #,  ,#        
             '#######'   ##     ##  '#######'  #'      '#     '####' # '####'        



                #########################################################
                #                        -***-                          #
                #          Department of theory and spectroscopy        #
                #                                                       #
                #                      Frank Neese                      #
                #                                                       #
                #     Directorship, Architecture, Infrastructure        #
                #                    SHARK, DRIVERS                     #
                #        Core code/Algorithms in most modules           #
                #                                                       #
                #        Max Planck Institute fuer Kohlenforschung      #
                #                Kaiser Wilhelm Platz 1                 #
                #                 D-45470 Muelheim/Ruhr                 #
                #                      Germany                          #
                #                                                       #
                #                  All rights reserved                  #
                #                        -***-                          #
                #########################################################


                         Program Version 6.0.1  -  RELEASE   -


 With contributions from (in alphabetic order):
[Max-Planck-Institut fuer Kohlenforschung]                               
  Daniel Aravena         : Magnetic Suceptibility                        
  Michael Atanasov       : Ab Initio Ligand Field Theory (pilot matlab implementation)
  Alexander A. Auer      : GIAO ZORA, VPT2 properties, NMR spectrum      
  Ute Becker             : All parallelization in ORCA, NUMFREQ, NUMCALC 
  Giovanni Bistoni       : ED, misc. LED, open-shell LED, HFLD           
  Martin Brehm           : Molecular dynamics                            
  Dmytro Bykov           : pre 5.0 version of the SCF Hessian            
  Marcos Casanova-Páez   : Triplet and SCS-CIS(D). UHF-(DLPNO)-IP/EA/STEOM-CCSD. UHF-CVS-IP/STEOM-CCSD   
  Vijay G. Chilkuri      : MRCI spin determinant printing, contributions to CSF-ICE 
  Pauline Colinet        : FMM embedding                                 
  Dipayan Datta          : RHF DLPNO-CCSD density                        
  Achintya Kumar Dutta   : EOM-CC, STEOM-CC                              
  Nicolas Foglia         : Exact transition moments, OPA infrastructure, MCD improvements    
  Dmitry Ganyushin       : Spin-Orbit,Spin-Spin,Magnetic field MRCI      
  Miquel Garcia-Rates    : C-PCM and meta-GGA Hessian, CCSD/C-PCM, Gaussian charge scheme 
  Tiago L. C. Gouveia    : GS-ROHF, GS-ROCIS                             
  Yang Guo               : DLPNO-NEVPT2, F12-NEVPT2, CIM, IAO-localization        
  Andreas Hansen         : Spin unrestricted coupled pair/coupled cluster methods 
  Ingolf Harden          : AUTO-CI MPn and infrastructure                
  Benjamin Helmich-Paris : MC-RPA, TRAH-(SCF,CASSCF), AVAS, COSX integrals, SCF dyn. polar. 
  Lee Huntington         : MR-EOM, pCC                                   
  Robert Izsak           : Overlap fitted RIJCOSX, COSX-SCS-MP3, EOM     
  Riya Kayal             : Wick's Theorem for AUTO-CI, AUTO-CI UHF-CCSDT 
  Emily Kempfer          : AUTO-CI, RHF CISDT and CCSDT                  
  Christian Kollmar      : KDIIS, OOCD, Brueckner-CCSD(T), CCSD density, CASPT2, CASPT2-K, improved NEVPT2 
  Axel Koslowski         : Symmetry handling                             
  Simone Kossmann        : meta-GGA functionals, TD-DFT gradient, OOMP2, (MP2 Hessian; deprecated post 5.0) 
  Lucas Lang             : DCDCAS                                        
  Marvin Lechner         : AUTO-CI (C++ implementation), FIC-MRCC        
  Spencer Leger          : CASSCF response                               
  Dagmar Lenk            : GEPOL surface, SMD, ORCA-2-JSON               
  Dimitrios Liakos       : Extrapolation schemes; Compound Job, initial MDCI parallelization 
  Dimitrios Manganas     : Further ROCIS development; embedding schemes. LFT, Crystal Embedding 
  Dimitrios Pantazis     : SARC Basis sets                               
  Anastasios Papadopoulos: AUTO-CI, single reference methods and gradients 
  Taras Petrenko         : pre 6.0 DFT Hessian and TD-DFT gradient, (ASA, deprecated), ECA, 1-Electron XAS/XES, NRVS 
  Peter Pinski           : DLPNO-MP2, DLPNO-MP2 Gradient                 
  Christoph Reimann      : Effective Core Potentials                     
  Marius Retegan         : Local ZFS, SOC                                
  Christoph Riplinger    : Optimizer, TS searches, QM/MM, DLPNO-CCSD(T), (RO)-DLPNO pert. Triples 
  Michael Roemelt        : Original ROCIS implementation                 
  Masaaki Saitow         : Open-shell DLPNO-CCSD energy and density      
  Barbara Sandhoefer     : DKH picture change effects                    
  Kantharuban Sivalingam : CASSCF convergence/infrastructure, NEVPT2 and variants, FIC-MRCI 
  Bernardo de Souza      : ESD, SOC TD-DFT                               
  Georgi L. Stoychev     : AutoAux, RI-MP2 NMR, DLPNO-MP2 response, X2C  
  Van Anh Tran           : RI-MP2 g-tensors                              
  Willem Van den Heuvel  : Paramagnetic NMR                              
  Zikuan Wang            : NOTCH, Electric field optimization            
  Frank Wennmohs         : Technical directorship and infrastructure     
  Hang Xu                : AUTO-CI-Response properties                   
                                                                         
[FACCTs GmbH]                                                            
  Markus Bursch, Miquel Garcia-Rates, Christoph Riplinger, Bernardo de Souza, Georgi L. Stoychev 
                                                                 
  APM, Basis sets (HGBS, AHGBS, def-TZVP (Ac-Lr), def2-XVPD (La-Lu)), CI-OPT, improved COSX, DLPNO-Multilevel,           
  DOCKER, DRACO, updates on ESD, GOAT, IRC, LR-CPCM, MBIS, meta-GGA TD-DFT gradient, ML-optimized integration grids, 
  MM, NACMEs, nearIR, NEB, NEB-TS, NL-DFT gradient (VV10), 2- and 3-layer-ONIOM, interface openCOSMO-RS, QMMM,   
  Crystal-QMMM, SF, symmetry and pop. for TD-DFT, r2SCAN hybrids, SOLVATOR                                   
                                                                         
[Other institutions]                                                     
  V. Asgeirsson          : NEB                                           
  Christoph Bannwarth    : sTDA-DFT, sTD-DFT, PBEh-3c, B97-3c, D3        
  Sebastian Ehlert       : rSCAN, r2SCAN, r2SCAN-3c, D4, dhf basis sets  
  Marvin Friede          : D4 for Fr, Ra, Ac-Lr                          
  Lars Goerigk           : TD-DFT with DH, B97 family of functionals     
  Stefan Grimme          : VdW corrections, initial TS optimization, DFT functionals, gCP, sTDA/sTD-DF 
  Waldemar Hujo          : DFT-NL                                        
  H. Jonsson             : NEB                                           
  Holger Kruse           : gCP                                           
  Marcel Mueller         : wB97X-3c, vDZP basis set                      
  Hagen Neugebauer       : wr2SCAN                                       
  Tobias Risthaus        : range-separated hybrid DFT                    
  Lukas Wittmann         : regularized MP2, r2SCAN double-hybrids, wr2SCAN        
                                                                         
We gratefully acknowledge several colleagues who have allowed us to      
interface, adapt or use parts of their codes:                            
  Ed Valeev, F. Pavosevic, A. Kumar             : LibInt (2-el integral package), F12 methods 
  Garnet Chan, S. Sharma, J. Yang, R. Olivares  : DMRG                   
  Ulf Ekstrom                                   : XCFun DFT Library      
  Mihaly Kallay                                 : mrcc  (arbitrary order and MRCC methods)
  Frank Weinhold                                : gennbo (NPA and NBO analysis)           
  Simon Mueller                                 : openCOSMO-RS                            
  Christopher J. Cramer and Donald G. Truhlar   : smd solvation model                     
  S Lehtola, MJT Oliveira, MAL Marques          : LibXC Library                           
  Liviu Ungur et al                             : ANISO software                          


 Your calculation uses the libint2 library for the computation of 2-el integrals
 For citations please refer to: http://libint.valeyev.net

 Your ORCA version has been built with support for libXC version: 6.2.2
 For citations please refer to: https://libxc.gitlab.io

 This ORCA versions uses:
   CBLAS   interface :  Fast vector & matrix operations
   LAPACKE interface :  Fast linear algebra routines
   Shared memory     :  Shared parallel matrices


NOTE: MaxCore=4000 MB was set to SCF,MP2,MDCI,CIPSI,MRCI and CIS
      => If you want to overwrite this, your respective input block should be placed after the MaxCore statement
Warning: RI is on but no J-basis has been assigned. Assigning Def2/J (nothing to worry about!)
================================================================================

----- Orbital basis set information -----
Your calculation utilizes the basis: def2-TZVPP
   F. Weigend and R. Ahlrichs, Phys. Chem. Chem. Phys. 7, 3297 (2005).

----- AuxJ basis set information -----
Your calculation utilizes the auxiliary basis: def2/J
   F. Weigend, Phys. Chem. Chem. Phys. 8, 1057 (2006).

================================================================================
                                        WARNINGS
                       Please study these warnings very carefully!
================================================================================


WARNING: Analytical and numerical frequencies both set to true
  ===> : Disabling Anfreq
INFO   : Checking CIS options ...

WARNING: Geometry Optimization
  ===> : Switching off AutoStart
         For restart on a previous wavefunction, please use MOREAD

WARNING: CIS/ROCIS methods need fully converged wavefunctions
  ===> : Setting SCFConvForced true
         You can overwrite this default with %scf ConvForced false 


================================================================================
                                       INPUT FILE
================================================================================
NAME = HCl_TDDFT-LDA.inp
|  1> ! LDA def2-TZVPP Opt TightOpt VeryTightSCF
|  2> 
|  3> 
|  4> ! Freq
|  5> ! NumFreq
|  6> 
|  7> %scf
|  8>    MaxIter 400          # Máximo de iteraciones permitidas para el SCF
|  9> end
| 10> 
| 11> %geom
| 12>    TolRMSD 1.0e-5
| 13>    TolMAXD 1.0e-4
| 14>    TolRMSG 1.0e-5
| 15>    TolMAXG 1.0e-4
| 16> end
| 17> 
| 18> 
| 19> %tddft
| 20>   nroots 10
| 21> end
| 22> 
| 23> %pal
| 24>    nprocs 1
| 25> end
| 26> 
| 27> 
| 28> %MaxCore 4000            # Memoria máxima por núcleo (en MB)
| 29> 
| 30> * xyz 0 1
| 31> Cl     0.000000    0.000000    0.074144
| 32> H      0.000000    0.000000   -1.208014
| 33> *
| 34> 
| 35>                          ****END OF INPUT****
================================================================================

                       *****************************
                       * Geometry Optimization Run *
                       *****************************

Geometry optimization settings:
Update method            Update   .... BFGS
Choice of coordinates    CoordSys .... (2022) Redundant Internals
Initial Hessian          InHess   .... Almloef's Model
Max. no of cycles        MaxIter  .... 50

Convergence Tolerances:
Energy Change            TolE     ....  1.0000e-06 Eh
Max. Gradient            TolMAXG  ....  1.0000e-04 Eh/bohr
RMS Gradient             TolRMSG  ....  1.0000e-05 Eh/bohr
Max. Displacement        TolMAXD  ....  1.0000e-04 bohr
RMS Displacement         TolRMSD  ....  1.0000e-05 bohr
Strict Convergence                .... False

------------------------------------------------------------------------------
                        ORCA OPTIMIZATION COORDINATE SETUP
------------------------------------------------------------------------------

The optimization will be done in redundant internal coordinates (2022)
Making redundant internal coordinates   ...  (2022 redundants) done
Evaluating the initial hessian          ...  (Almloef) done
Evaluating the coordinates              ...  done
Calculating the B-matrix                .... done
Calculating the G-matrix                .... done
Diagonalizing the G-matrix              .... done
The first mode is                       ....    0
The number of degrees of freedom        ....    1

    -----------------------------------------------------------------
                    Redundant Internal Coordinates


    -----------------------------------------------------------------
         Definition                    Initial Value    Approx d2E/dq
    -----------------------------------------------------------------
      1. B(H   1,Cl  0)                  1.2822         0.398881   
    -----------------------------------------------------------------

Number of atoms                         .... 2
Number of degrees of freedom            .... 1


         *************************************************************
         *                GEOMETRY OPTIMIZATION CYCLE   1            *
         *************************************************************
---------------------------------
CARTESIAN COORDINATES (ANGSTROEM)
---------------------------------
  Cl     0.000000    0.000000    0.074144
  H      0.000000    0.000000   -1.208014

----------------------------
CARTESIAN COORDINATES (A.U.)
----------------------------
  NO LB      ZA    FRAG     MASS         X           Y           Z
   0 Cl   17.0000    0    35.453    0.000000    0.000000    0.140112
   1 H     1.0000    0     1.008    0.000000    0.000000   -2.282816

--------------------------------
INTERNAL COORDINATES (ANGSTROEM)
--------------------------------
 Cl     0   0   0     0.000000000000     0.00000000     0.00000000
 H      1   0   0     1.282158000000     0.00000000     0.00000000

---------------------------
INTERNAL COORDINATES (A.U.)
---------------------------
 Cl     0   0   0     0.000000000000     0.00000000     0.00000000
 H      1   0   0     2.422927480416     0.00000000     0.00000000

---------------------
BASIS SET INFORMATION
---------------------
There are 2 groups of distinct atoms

 Group   1 Type Cl  : 14s9p3d1f contracted to 5s5p3d1f pattern {73211/51111/111/1}
 Group   2 Type H   : 5s2p1d contracted to 3s2p1d pattern {311/11/1}

Atom   0Cl   basis set group =>   1
Atom   1H    basis set group =>   2
---------------------------------
AUXILIARY/J BASIS SET INFORMATION
---------------------------------
There are 2 groups of distinct atoms

 Group   1 Type Cl  : 14s5p5d2f1g contracted to 8s4p3d1f1g pattern {71111111/2111/311/2/1}
 Group   2 Type H   : 5s2p1d contracted to 3s1p1d pattern {311/2/1}

Atom   0Cl   basis set group =>   1
Atom   1H    basis set group =>   2
------------------------------------------------------------------------------
                             ORCA STARTUP CALCULATIONS
                           -- RI-GTO INTEGRALS CHOSEN --
------------------------------------------------------------------------------
------------------------------------------------------------------------------
                   ___                                                        
                  /   \      - P O W E R E D   B Y -                         
                 /     \                                                     
                 |  |  |   _    _      __       _____    __    __             
                 |  |  |  | |  | |    /  \     |  _  \  |  |  /  |          
                  \  \/   | |  | |   /    \    | | | |  |  | /  /          
                 / \  \   | |__| |  /  /\  \   | |_| |  |  |/  /          
                |  |  |   |  __  | /  /__\  \  |    /   |      \           
                |  |  |   | |  | | |   __   |  |    \   |  |\   \          
                \     /   | |  | | |  |  |  |  | |\  \  |  | \   \       
                 \___/    |_|  |_| |__|  |__|  |_| \__\ |__|  \__/        
                                                                              
                      - O R C A' S   B I G   F R I E N D -                    
                                      &                                       
                       - I N T E G R A L  F E E D E R -                       
                                                                              
 v1 FN, 2020, v2 2021, v3 2022-2024                                           
------------------------------------------------------------------------------


----------------------
SHARK INTEGRAL PACKAGE
----------------------

Number of atoms                             ...      2
Number of basis functions                   ...     56
Number of shells                            ...     20
Maximum angular momentum                    ...      3
Integral batch strategy                     ... SHARK/LIBINT Hybrid
RI-J (if used) integral strategy            ... SPLIT-RIJ (Revised 2003 algorithm where possible)
Printlevel                                  ...      1
Contraction scheme used                     ... SEGMENTED contraction
Prescreening option                         ... SCHWARTZ
   Thresh                                   ... 1.000e-12
   Tcut                                     ... 1.000e-14
   Tpresel                                  ... 1.000e-14 
Coulomb Range Separation                    ... NOT USED
Exchange Range Separation                   ... NOT USED
Multipole approximations                    ... NOT USED
Finite Nucleus Model                        ... NOT USED
CABS basis                                  ... NOT available
Auxiliary Coulomb fitting basis             ... AVAILABLE
   # of basis functions in Aux-J            ...     62
   # of shells in Aux-J                     ...     22
   Maximum angular momentum in Aux-J        ...      4
Auxiliary J/K fitting basis                 ... NOT available
Auxiliary Correlation fitting basis         ... NOT available
Auxiliary 'external' fitting basis          ... NOT available

Checking pre-screening integrals            ... done (  0.0 sec) Dimension = 20
Check shell pair data                       ... done (  0.0 sec)
Shell pair information
Shell pair cut-off parameter TPreSel        ...   1.0e-14
Total number of shell pairs                 ...       210
Shell pairs after pre-screening             ...       210
Total number of primitive shell pairs       ...       668
Primitive shell pairs kept                  ...       654
          la=0 lb=0:     36 shell pairs
          la=1 lb=0:     56 shell pairs
          la=1 lb=1:     28 shell pairs
          la=2 lb=0:     32 shell pairs
          la=2 lb=1:     28 shell pairs
          la=2 lb=2:     10 shell pairs
          la=3 lb=0:      8 shell pairs
          la=3 lb=1:      7 shell pairs
          la=3 lb=2:      4 shell pairs
          la=3 lb=3:      1 shell pairs

Calculating one electron integrals          ... done (  0.0 sec)
Calculating RI/J V-Matrix + Cholesky decomp.... done (  0.0 sec)
Calculating Nuclear repulsion               ... done (  0.0 sec) ENN=      7.016305744768 Eh

Diagonalization of the overlap matrix:
Smallest eigenvalue                        ... 4.016e-03
Time for diagonalization                   ...    0.000 sec
Threshold for overlap eigenvalues          ... 1.000e-07
Number of eigenvalues below threshold      ... 0
Time for construction of square roots      ...    0.001 sec
Total time needed                          ...    0.007 sec

-------------------
DFT GRID GENERATION
-------------------

General Integration Accuracy     IntAcc      ... 4.388
Radial Grid Type                 RadialGrid  ... OptM3 with GC (2021)
Angular Grid (max. ang.)         AngularGrid ... 4 (Lebedev-302)
Angular grid pruning method      GridPruning ... 4 (adaptive)
Weight generation scheme         WeightScheme... mBecke (2022)
Basis function cutoff            BFCut       ... 1.0000e-12
Integration weight cutoff        WCut        ... 1.0000e-14
Partially contracted basis set               ... off
Rotationally invariant grid construction     ... off
Angular grids for H and He will be reduced by one unit

Total number of grid points                  ...    10685
Total number of batches                      ...      168
Average number of points per batch           ...       63
Average number of grid points per atom       ...     5343
Initializing property integral containers    ... done (  0.0 sec)

SHARK setup successfully completed in   0.1 seconds

Maximum memory used throughout the entire STARTUP-calculation: 15.1 MB
-------------------------------------------------------------------------------
                                 ORCA GUESS
                   Start orbitals & Density for SCF / CASSCF
-------------------------------------------------------------------------------

------------
SCF SETTINGS
------------
Hamiltonian:
 Density Functional     Method          .... DFT(GTOs)
 Exchange Functional    Exchange        .... Slater
   X-Alpha parameter    XAlpha          ....  0.666667
 Correlation Functional Correlation     .... VWN-5
 Gradients option       PostSCFGGA      .... off
 RI-approximation to the Coulomb term is turned on
   Number of AuxJ basis functions       .... 62


General Settings:
 Integral files         IntName         .... HCl_TDDFT-LDA
 Hartree-Fock type      HFTyp           .... RHF
 Total Charge           Charge          ....    0
 Multiplicity           Mult            ....    1
 Number of Electrons    NEL             ....   18
 Basis Dimension        Dim             ....   56
 Nuclear Repulsion      ENuc            ....      7.0163057448 Eh

Convergence Acceleration:
 AO-DIIS                CNVDIIS         .... on
   Start iteration      DIISMaxIt       ....    12
   Startup error        DIISStart       ....  0.200000
   # of expansion vecs  DIISMaxEq       ....     5
   Bias factor          DIISBfac        ....   1.050
   Max. coefficient     DIISMaxC        ....  10.000
 MO-DIIS                CNVKDIIS        .... off
 Trust-Rad. Augm. Hess. CNVTRAH         .... auto
   Auto Start mean grad. ratio tolernc. ....  1.125000
   Auto Start start iteration           ....    50
   Auto Start num. interpolation iter.  ....    10
   Max. Number of Micro iterations      ....    24
   Max. Number of Macro iterations      .... Maxiter - #DIIS iter
   Number of Davidson start vectors     ....     2
   Converg. threshold    (grad. norm)   ....   2.000e-06
   Grad. Scal. Fac. for Micro threshold ....   0.100
   Minimum threshold for Micro iter.    ....   1.000e-02
   NR start threshold (gradient norm)   ....   1.000e-04
   Initial trust radius                 ....   0.400
   Minimum AH scaling param. (alpha)    ....   1.000
   Maximum AH scaling param. (alpha)    .... 1000.000
   Quad. conv. algorithm                .... NR
   White noise on init. David. guess    .... on
   Maximum white noise                  ....   0.010
   Pseudo random numbers                .... off
   Inactive MOs                         .... canonical
   Orbital update algorithm             .... Taylor
   Preconditioner                       .... Diag
   Full preconditioner red. dimension   ....   250
 SOSCF                  CNVSOSCF        .... on
   Start iteration      SOSCFMaxIt      ....   150
   Startup grad/error   SOSCFStart      ....  0.003300
   Hessian update       SOSCFHessUp     .... L-BFGS
 Level Shifting         CNVShift        .... on
   Level shift para.    LevelShift      ....    0.2500
   Turn off err/grad.   ShiftErr        ....    0.0010
 Zerner damping         CNVZerner       .... off
 Static damping         CNVDamp         .... on
   Fraction old density DampFac         ....    0.7000
   Max. Damping (<1)    DampMax         ....    0.9800
   Min. Damping (>=0)   DampMin         ....    0.0000
   Turn off err/grad.   DampErr         ....    0.1000

SCF Procedure:
 Maximum # iterations   MaxIter         ....   400
 SCF integral mode      SCFMode         .... Direct
   Integral package                     .... SHARK and LIBINT hybrid scheme
 Reset frequency        DirectResetFreq ....    20
 Integral Threshold     Thresh          ....  1.000e-12 Eh
 Primitive CutOff       TCut            ....  1.000e-14 Eh

Convergence Tolerance:
 Convergence Check Mode ConvCheckMode   .... Total+1el-Energy
 Convergence forced     ConvForced      .... 1
 Energy Change          TolE            ....  1.000e-09 Eh
 1-El. energy change                    ....  1.000e-06 Eh
 Orbital Gradient       TolG            ....  2.000e-06
 Orbital Rotation angle TolX            ....  2.000e-06
 DIIS Error             TolErr          ....  1.000e-08

------------------------------
INITIAL GUESS: MODEL POTENTIAL
------------------------------
Loading Hartree-Fock densities                     ... done
Calculating cut-offs                               ... done
Initializing the effective Hamiltonian             ... done
Setting up the integral package (SHARK)            ... done
Starting the Coulomb interaction                   ... done (   0.0 sec)
Making the grid                                    ... done (   0.0 sec)
Mapping shells                                     ... done
Starting the XC term evaluation                    ... done (   0.0 sec)
  promolecular density results
     # of electrons  =     17.999586649
     EX              =    -25.664975466
     EC              =     -1.382229165
     EX+EC           =    -27.047204631
Transforming the Hamiltonian                       ... done (   0.0 sec)
Diagonalizing the Hamiltonian                      ... done (   0.0 sec)
Back transforming the eigenvectors                 ... done (   0.0 sec)
Now organizing SCF variables                       ... done
                      ------------------
                      INITIAL GUESS DONE (   0.1 sec)
                      ------------------
             **** ENERGY FILE WAS UPDATED (HCl_TDDFT-LDA.en.tmp) ****
Finished Guess after   0.1 sec
Maximum memory used throughout the entire GUESS-calculation: 7.3 MB

-------------------------------------------------------------------------------------------
                                      ORCA LEAN-SCF
                              memory conserving SCF solver
-------------------------------------------------------------------------------------------

----------------------------------------D-I-I-S--------------------------------------------
Iteration    Energy (Eh)           Delta-E    RMSDP     MaxDP     DIISErr   Damp  Time(sec)
-------------------------------------------------------------------------------------------
               ***  Starting incremental Fock matrix formation  ***
    1    -459.3120509920983636     0.00e+00  1.79e-03  3.68e-02  6.71e-02  0.700   0.1
    2    -459.3157229247083251    -3.67e-03  1.26e-03  2.12e-02  3.59e-02  0.700   0.1
                               ***Turning on AO-DIIS***
    3    -459.3172390691085525    -1.52e-03  4.24e-04  7.24e-03  1.51e-02  0.700   0.1
    4    -459.3180933500374294    -8.54e-04  6.03e-04  1.09e-02  8.21e-03  0.000   0.1
                              *** Initializing SOSCF ***
---------------------------------------S-O-S-C-F--------------------------------------
Iteration    Energy (Eh)           Delta-E    RMSDP     MaxDP     MaxGrad    Time(sec)
--------------------------------------------------------------------------------------
    5    -459.3199283385040985    -1.83e-03  9.69e-05  1.72e-03  2.02e-03     0.1
               *** Restarting incremental Fock matrix formation ***
    6    -459.3199350334590463    -6.69e-06  6.34e-05  8.18e-04  3.22e-04     0.1
    7    -459.3199348322844457     2.01e-07  3.17e-05  5.21e-04  3.23e-04     0.1
    8    -459.3199355924106158    -7.60e-07  3.55e-06  5.54e-05  1.70e-05     0.1
    9    -459.3199355934323762    -1.02e-09  1.71e-06  3.11e-05  1.69e-05     0.1
   10    -459.3199355960709340    -2.64e-09  4.21e-07  9.91e-06  4.07e-06     0.1
   11    -459.3199355961143056    -4.34e-11  1.18e-07  2.42e-06  1.97e-06     0.1
                 **** Energy Check signals convergence ****

               *****************************************************
               *                     SUCCESS                       *
               *           SCF CONVERGED AFTER  11 CYCLES          *
               *****************************************************

             **** ENERGY FILE WAS UPDATED (HCl_TDDFT-LDA.en.tmp) ****

----------------
TOTAL SCF ENERGY
----------------

Total Energy       :       -459.31993559611431 Eh          -12498.73087 eV

Components:
Nuclear Repulsion  :          7.01630574476781 Eh             190.92339 eV
Electronic Energy  :       -466.33624134088211 Eh          -12689.65426 eV
One Electron Energy:       -649.87395956682246 Eh          -17683.96948 eV
Two Electron Energy:        183.53771822594035 Eh            4994.31522 eV

Virial components:
Potential Energy   :       -919.04433374529822 Eh          -25008.46773 eV
Kinetic Energy     :        459.72439814918397 Eh           12509.73686 eV
Virial Ratio       :          1.99912020646566

DFT components:
N(Alpha)           :        9.000000184891 electrons
N(Beta)            :        9.000000184891 electrons
N(Total)           :       18.000000369782 electrons
E(X)               :      -25.693566969217 Eh       
E(C)               :       -1.385726293863 Eh       
E(XC)              :      -27.079293263080 Eh       

---------------
SCF CONVERGENCE
---------------

  Last Energy change         ...    4.3372e-11  Tolerance :   1.0000e-09
  Last MAX-Density change    ...    2.4220e-06  Tolerance :   1.0000e-08
  Last RMS-Density change    ...    1.1794e-07  Tolerance :   1.0000e-09
  Last DIIS Error            ...    2.0191e-03  Tolerance :   1.0000e-08
  Last Orbital Gradient      ...    1.9690e-06  Tolerance :   2.0000e-06
  Last Orbital Rotation      ...    9.2308e-07  Tolerance :   2.0000e-06


----------------
ORBITAL ENERGIES
----------------

  NO   OCC          E(Eh)            E(eV) 
   0   2.0000    -100.303507     -2729.3972 
   1   2.0000      -9.141270      -248.7466 
   2   2.0000      -7.000007      -190.4799 
   3   2.0000      -6.990028      -190.2083 
   4   2.0000      -6.990028      -190.2083 
   5   2.0000      -0.771185       -20.9850 
   6   2.0000      -0.430122       -11.7042 
   7   2.0000      -0.295161        -8.0317 
   8   2.0000      -0.295161        -8.0317 
   9   0.0000      -0.028399        -0.7728 
  10   0.0000       0.150472         4.0945 
  11   0.0000       0.296272         8.0620 
  12   0.0000       0.296272         8.0620 
  13   0.0000       0.301742         8.2108 
  14   0.0000       0.308231         8.3874 
  15   0.0000       0.308231         8.3874 
  16   0.0000       0.368413        10.0250 
  17   0.0000       0.368413        10.0250 
  18   0.0000       0.551427        15.0051 
  19   0.0000       0.676877        18.4188 
*Only the first 10 virtual orbitals were printed.

                    ********************************
                    * MULLIKEN POPULATION ANALYSIS *
                    ********************************

-----------------------
MULLIKEN ATOMIC CHARGES
-----------------------
   0 Cl:   -0.195849
   1 H :    0.195849
Sum of atomic charges:   -0.0000000

--------------------------------
MULLIKEN REDUCED ORBITAL CHARGES
--------------------------------
  0 Cls       :     5.935797  s :     5.935797
      pz      :     3.284750  p :    11.229092
      px      :     3.972171
      py      :     3.972171
      dz2     :     0.024604  d :     0.028330
      dxz     :     0.001863
      dyz     :     0.001863
      dx2y2   :     0.000000
      dxy     :     0.000000
      f0      :     0.002195  f :     0.002630
      f+1     :     0.000217
      f-1     :     0.000217
      f+2     :     0.000000
      f-2     :     0.000000
      f+3     :     0.000000
      f-3     :     0.000000

  1 H s       :     0.735216  s :     0.735216
      pz      :     0.016878  p :     0.065984
      px      :     0.024553
      py      :     0.024553
      dz2     :     0.000559  d :     0.002951
      dxz     :     0.001196
      dyz     :     0.001196
      dx2y2   :     0.000000
      dxy     :     0.000000



                     *******************************
                     * LOEWDIN POPULATION ANALYSIS *
                     *******************************

----------------------
LOEWDIN ATOMIC CHARGES
----------------------
   0 Cl:    0.205564
   1 H :   -0.205564

-------------------------------
LOEWDIN REDUCED ORBITAL CHARGES
-------------------------------
  0 Cls       :     5.597326  s :     5.597326
      pz      :     3.336014  p :    11.156249
      px      :     3.910118
      py      :     3.910118
      dz2     :     0.036160  d :     0.036733
      dxz     :     0.000286
      dyz     :     0.000286
      dx2y2   :     0.000000
      dxy     :     0.000000
      f0      :     0.003921  f :     0.004128
      f+1     :     0.000103
      f-1     :     0.000103
      f+2     :     0.000000
      f-2     :     0.000000
      f+3     :     0.000000
      f-3     :     0.000000

  1 H s       :     0.858307  s :     0.858307
      pz      :     0.150690  p :     0.303179
      px      :     0.076245
      py      :     0.076245
      dz2     :     0.017582  d :     0.044078
      dxz     :     0.013248
      dyz     :     0.013248
      dx2y2   :     0.000000
      dxy     :     0.000000



                      *****************************
                      * MAYER POPULATION ANALYSIS *
                      *****************************

  NA   - Mulliken gross atomic population
  ZA   - Total nuclear charge
  QA   - Mulliken gross atomic charge
  VA   - Mayer's total valence
  BVA  - Mayer's bonded valence
  FA   - Mayer's free valence

  ATOM       NA         ZA         QA         VA         BVA        FA
  0 Cl    17.1958    17.0000    -0.1958     1.0254     1.0254    -0.0000
  1 H      0.8042     1.0000     0.1958     1.0254     1.0254    -0.0000

  Mayer bond orders larger than 0.100000
B(  0-Cl,  1-H ) :   1.0254 

-------
TIMINGS
-------

Total SCF time: 0 days 0 hours 0 min 1 sec 

Total time                  ....       1.128 sec
Sum of individual times     ....       1.085 sec  ( 96.2%)

SCF preparation             ....       0.041 sec  (  3.6%)
Fock matrix formation       ....       0.362 sec  ( 32.1%)
  Startup                   ....       0.020 sec  (  5.5% of F)
  Split-RI-J                ....       0.085 sec  ( 23.5% of F)
  XC integration            ....       0.177 sec  ( 48.9% of F)
    Basis function eval.    ....       0.034 sec  ( 19.2% of XC)
    Density eval.           ....       0.037 sec  ( 20.9% of XC)
    XC-Functional eval.     ....       0.017 sec  (  9.6% of XC)
    XC-Potential eval.      ....       0.038 sec  ( 21.5% of XC)
Diagonalization             ....       0.000 sec  (  0.0%)
Density matrix formation    ....       0.242 sec  ( 21.5%)
Total Energy calculation    ....       0.089 sec  (  7.9%)
Population analysis         ....       0.024 sec  (  2.1%)
Orbital Transformation      ....       0.027 sec  (  2.4%)
Orbital Orthonormalization  ....       0.000 sec  (  0.0%)
DIIS solution               ....       0.167 sec  ( 14.8%)
SOSCF solution              ....       0.133 sec  ( 11.8%)
Finished LeanSCF after   1.2 sec

Maximum memory used throughout the entire LEANSCF-calculation: 5.0 MB

------------------------------------------------------------------------------
                         ORCA PROPERTY INTEGRAL CALCULATIONS
------------------------------------------------------------------------------

GBWName                                   ... HCl_TDDFT-LDA.gbw
Number of atoms                           ...      2
Number of basis functions                 ...     56
Max core memory                           ...   4000 MB

Dipole integrals                          ... YES
Quadrupole integrals                      ...  NO
Linear momentum integrals                 ... YES
Angular momentum integrals                ... YES
Higher moments length integrals           ...  NO
Higher moments velocity integrals         ...  NO
Kinetic energy integrals                  ...  NO
GIAO right hand sides                     ...  NO
GIAO dipole derivative integrals          ...  NO
SOC integrals                             ...  NO
EPR diamagnetic integrals (GIAO)          ...  NO
EPR gauge integrals                       ...  NO
Field gradient integrals                  ...  NO (   0 nuclei)
Spin-dipole/Fermi contact integrals       ...  NO (   0 nuclei)
Contact density integrals                 ...  NO (   0 nuclei)
Nucleus-orbit integrals                   ...  NO (   0 nuclei)
Geometric perturbations                   ...  NO (   2 nuclei)

Choice of electric origin   ... Center of mass
Position of electric origin ... (  0.0000,  0.0000,  0.0731) 
Choice of magnetic origin   ... GIAO
Position of magnetic origin ... (  0.0000,  0.0000,  0.0000) 

Calculating integrals                     ... Electric Dipole (Length)     done (  0.0 sec)
Calculating integrals                     ... Linear Momentum              done (  0.0 sec)
Calculating integrals                     ... Angular Momentum  (ElOri)    done (  0.0 sec)

Property integrals calculated in   0.0 sec

Maximum memory used throughout the entire PROPINT-calculation: 7.4 MB
------------------------------------------------------------------------------
                        ORCA TD-DFT/TDA CALCULATION
------------------------------------------------------------------------------

Input orbitals are from        ... HCl_TDDFT-LDA.gbw
CI-vector output               ... HCl_TDDFT-LDA.cis
Solver                         ... FN-2001
Tamm-Dancoff approximation     ... operative
CIS-Integral strategy          ... AO-integrals
Integral handling              ... AO integral Direct
Max. core memory used          ... 4000 MB
Reference state                ... RHF
Generation of triplets         ... off
Follow IRoot                   ... off
Number of operators            ... 1
Orbital ranges used for CIS calculation:
 Operator 0:  Orbitals   5...  8  to   9... 55
XAS localization array:
 Operator 0:  Orbitals  -1... -1

-------------------
XC-INTEGRATION GRID
-------------------

General Integration Accuracy     IntAcc      ... 3.467
Radial Grid Type                 RadialGrid  ... OptM3 with GC (2021)
Angular Grid (max. ang.)         AngularGrid ... 1 (Lebedev-50)
Angular grid pruning method      GridPruning ... 4 (adaptive)
Weight generation scheme         WeightScheme... mBecke (2022)
Basis function cutoff            BFCut       ... 1.0000e-12
Integration weight cutoff        WCut        ... 1.0000e-14
Partially contracted basis set               ... off
Rotationally invariant grid construction     ... off
Angular grids for H and He will be reduced by one unit

Total number of grid points                  ...     2385
Total number of batches                      ...       38
Average number of points per batch           ...       62
Average number of grid points per atom       ...     1193

---------------
TD-DFT XC SETUP
---------------

DFT calculation                         ... on
Name of the grid file                   ... HCl_TDDFT-LDA.grid_cis.tmp
RI-approximation                        ... on
Aux-basis dimension                     ... 0
Exchange functional (TD-DFT)            ... Slater
   X-Alpha parameter    XAlpha (TD-DFT) ...  0.666667
Correlation functional (TD-DFT)         ... VWN-5

Building densities             ... done
Calculating rho(r) on the grid ... done
Building xc-kernel on the grid ... done
                    *** TD-DFT CALCULATION INITIALIZED ***

------------------------
DAVIDSON-DIAGONALIZATION
------------------------

Dimension of the eigenvalue problem            ...    188
Number of roots to be determined               ...     10
Maximum size of the expansion space            ...    100
Maximum number of iterations                   ...    100
Convergence tolerance for the residual         ...    1.000e-07
Convergence tolerance for the energies         ...    1.000e-07
Orthogonality tolerance                        ...    1.000e-14
Level Shift                                    ...    0.000e+00
Constructing the preconditioner                ... o.k.
Building the initial guess                     ... o.k.
Number of trial vectors determined             ...    100


                       ****Iteration    0****
   Time for iteration     :  TOTAL=0.5 TRAFO=0.4 RIJ=0.0 XC=0.0
   Size of expansion space: 30
   Lowest Energy          :     0.280453022381
   Maximum Energy change  :     0.602774968203 (vector 9)
   Maximum residual norm  :     0.002621737157

                       ****Iteration    1****
   Time for iteration     :  TOTAL=0.2 TRAFO=0.1 RIJ=0.0 XC=0.0
   Size of expansion space: 39
   Lowest Energy          :     0.279166194507
   Maximum Energy change  :     0.002011704830 (vector 2)
   Maximum residual norm  :     0.000008303450

                       ****Iteration    2****
   Time for iteration     :  TOTAL=0.5 TRAFO=0.4 RIJ=0.0 XC=0.0
   Size of expansion space: 48
   Lowest Energy          :     0.279165813601
   Maximum Energy change  :     0.000006505951 (vector 2)
   Maximum residual norm  :     0.000000019740

      *** CONVERGENCE OF RESIDUAL NORM REACHED ***

Storing the converged CI vectors               ... HCl_TDDFT-LDA.cis1

                 *** DAVIDSON DONE ***

Total time for solving the CIS problem:     4.380sec

------------------------------------
TD-DFT/TDA EXCITED STATES (SINGLETS)
------------------------------------

the weight of the individual excitations are printed if larger than 1.0e-02

STATE  1:  E=   0.279166 au      7.596 eV    61269.8 cm**-1 <S**2> =   0.000000 Mult 1
     7a ->   9a  :     0.010295 (c=  0.10146670)
     8a ->   9a  :     0.981563 (c= -0.99073885)

STATE  2:  E=   0.279166 au      7.596 eV    61269.8 cm**-1 <S**2> =   0.000000 Mult 1
     7a ->   9a  :     0.981563 (c=  0.99073885)
     8a ->   9a  :     0.010295 (c=  0.10146670)

STATE  3:  E=   0.449705 au     12.237 eV    98698.9 cm**-1 <S**2> =   0.000000 Mult 1
     6a ->   9a  :     0.889478 (c= -0.94312139)
     6a ->  10a  :     0.049706 (c= -0.22294818)
     7a ->  12a  :     0.018750 (c= -0.13693025)
     8a ->  11a  :     0.018750 (c= -0.13693025)

STATE  4:  E=   0.456738 au     12.428 eV   100242.4 cm**-1 <S**2> =   0.000000 Mult 1
     8a ->  10a  :     0.969426 (c= -0.98459421)

STATE  5:  E=   0.456738 au     12.428 eV   100242.4 cm**-1 <S**2> =   0.000000 Mult 1
     7a ->  10a  :     0.969426 (c=  0.98459421)

STATE  6:  E=   0.591433 au     16.094 eV   129804.5 cm**-1 <S**2> =   0.000000 Mult 1
     7a ->  11a  :     0.412976 (c=  0.64263179)
     7a ->  12a  :     0.087024 (c=  0.29499896)
     8a ->  11a  :     0.087024 (c=  0.29499896)
     8a ->  12a  :     0.412976 (c= -0.64263179)

STATE  7:  E=   0.599266 au     16.307 eV   131523.7 cm**-1 <S**2> =   0.000000 Mult 1
     8a ->  13a  :     0.996625 (c= -0.99831116)

STATE  8:  E=   0.599266 au     16.307 eV   131523.7 cm**-1 <S**2> =   0.000000 Mult 1
     7a ->  13a  :     0.996625 (c=  0.99831116)

STATE  9:  E=   0.602316 au     16.390 eV   132193.1 cm**-1 <S**2> =   0.000000 Mult 1
     7a ->  11a  :     0.130969 (c=  0.36189641)
     7a ->  12a  :     0.348034 (c= -0.58994422)
     7a ->  14a  :     0.018045 (c=  0.13433232)
     8a ->  11a  :     0.348034 (c=  0.58994422)
     8a ->  12a  :     0.130969 (c=  0.36189641)
     8a ->  15a  :     0.018045 (c=  0.13433232)

STATE 10:  E=   0.602482 au     16.394 eV   132229.5 cm**-1 <S**2> =   0.000000 Mult 1
     7a ->  11a  :     0.342604 (c= -0.58532421)
     7a ->  12a  :     0.128926 (c= -0.35906230)
     7a ->  15a  :     0.024807 (c= -0.15750121)
     8a ->  11a  :     0.128926 (c=  0.35906230)
     8a ->  12a  :     0.342604 (c= -0.58532421)
     8a ->  14a  :     0.024807 (c=  0.15750121)


-----------------------------
TD-DFT/TDA-EXCITATION SPECTRA
-----------------------------

Center of mass = (  0.0000,  0.0000,  0.0731)
Generating CIS transition densities           ... done

----------------------------------------------------------------------------------------------------
                     ABSORPTION SPECTRUM VIA TRANSITION ELECTRIC DIPOLE MOMENTS    
----------------------------------------------------------------------------------------------------
     Transition      Energy     Energy  Wavelength fosc(D2)      D2        DX        DY        DZ   
                      (eV)      (cm-1)    (nm)                 (au**2)    (au)      (au)      (au)  
----------------------------------------------------------------------------------------------------
  0-1A  ->  1-1A    7.596488   61269.8   163.2   0.012566232   0.06752   0.15170   0.21097  -0.00000
  0-1A  ->  2-1A    7.596488   61269.8   163.2   0.012566232   0.06752  -0.21097   0.15170  -0.00000
  0-1A  ->  3-1A   12.237106   98698.9   101.3   0.449421928   1.49905  -0.00000  -0.00000   1.22436
  0-1A  ->  4-1A   12.428466  100242.4    99.8   0.085176377   0.27973   0.32365   0.41831   0.00000
  0-1A  ->  5-1A   12.428466  100242.4    99.8   0.085176377   0.27973  -0.41831   0.32365  -0.00000
  0-1A  ->  6-1A   16.093711  129804.5    77.0   0.000000000   0.00000  -0.00000   0.00000   0.00000
  0-1A  ->  7-1A   16.306858  131523.7    76.0   0.044981682   0.11259  -0.22556  -0.24842   0.00000
  0-1A  ->  8-1A   16.306858  131523.7    76.0   0.044981682   0.11259   0.24842  -0.22556  -0.00000
  0-1A  ->  9-1A   16.389852  132193.1    75.6   0.000000000   0.00000   0.00000  -0.00000   0.00000
  0-1A  -> 10-1A   16.394362  132229.5    75.6   0.000000000   0.00000   0.00000   0.00000   0.00000

----------------------------------------------------------------------------------------------------
                     ABSORPTION SPECTRUM VIA TRANSITION VELOCITY DIPOLE MOMENTS    
----------------------------------------------------------------------------------------------------
     Transition      Energy     Energy  Wavelength fosc(P2)      P2        PX        PY        PZ   
                      (eV)      (cm-1)    (nm)                 (au**2)    (au)      (au)      (au)  
----------------------------------------------------------------------------------------------------
  0-1A  ->  1-1A    7.596488   61269.8   163.2   0.032841764   0.01375  -0.06846  -0.09521   0.00000
  0-1A  ->  2-1A    7.596488   61269.8   163.2   0.032841764   0.01375   0.09521  -0.06846   0.00000
  0-1A  ->  3-1A   12.237106   98698.9   101.3   0.272044628   0.18351   0.00000   0.00000  -0.42838
  0-1A  ->  4-1A   12.428466  100242.4    99.8   0.038732520   0.02654  -0.09968  -0.12884  -0.00000
  0-1A  ->  5-1A   12.428466  100242.4    99.8   0.038732520   0.02654   0.12884  -0.09968   0.00000
  0-1A  ->  6-1A   16.093711  129804.5    77.0   0.000000000   0.00000   0.00000  -0.00000   0.00000
  0-1A  ->  7-1A   16.306858  131523.7    76.0   0.019238693   0.01729   0.08840   0.09736  -0.00000
  0-1A  ->  8-1A   16.306858  131523.7    76.0   0.019238693   0.01729  -0.09736   0.08840   0.00000
  0-1A  ->  9-1A   16.389852  132193.1    75.6   0.000000000   0.00000  -0.00000   0.00000  -0.00000
  0-1A  -> 10-1A   16.394362  132229.5    75.6   0.000000000   0.00000  -0.00000  -0.00000  -0.00000

------------------------------------------------------------------------------------------
                     CD SPECTRUM VIA TRANSITION ELECTRIC DIPOLE MOMENTS    
------------------------------------------------------------------------------------------
     Transition      Energy     Energy  Wavelength    R        MX        MY        MZ   
                      (eV)      (cm-1)    (nm)   (1e40*cgs)   (au)      (au)      (au)  
------------------------------------------------------------------------------------------
  0-1A  ->  1-1A    7.596488   61269.8   163.2    0.00000  -0.12680   0.09118   0.00000
  0-1A  ->  2-1A    7.596488   61269.8   163.2    0.00000  -0.09118  -0.12680  -0.00000
  0-1A  ->  3-1A   12.237106   98698.9   101.3    0.00000  -0.00000   0.00000  -0.00000
  0-1A  ->  4-1A   12.428466  100242.4    99.8   -0.00000   0.10020  -0.07753  -0.00000
  0-1A  ->  5-1A   12.428466  100242.4    99.8   -0.00000   0.07753   0.10020  -0.00000
  0-1A  ->  6-1A   16.093711  129804.5    77.0   -0.00000  -0.00000   0.00000  -0.00000
  0-1A  ->  7-1A   16.306858  131523.7    76.0    0.00000  -0.01479   0.01343  -0.00000
  0-1A  ->  8-1A   16.306858  131523.7    76.0    0.00000  -0.01343  -0.01479   0.00000
  0-1A  ->  9-1A   16.389852  132193.1    75.6    0.00000  -0.00000  -0.00000  -0.00000
  0-1A  -> 10-1A   16.394362  132229.5    75.6    0.00000   0.00000  -0.00000  -0.00000

------------------------------------------------------------------------------------------
                     CD SPECTRUM VIA TRANSITION VELOCITY DIPOLE MOMENTS    
------------------------------------------------------------------------------------------
     Transition      Energy     Energy  Wavelength    R        MX        MY        MZ   
                      (eV)      (cm-1)    (nm)   (1e40*cgs)   (au)      (au)      (au)  
------------------------------------------------------------------------------------------
  0-1A  ->  1-1A    7.596488   61269.8   163.2    0.00000  -0.12680   0.09118   0.00000
  0-1A  ->  2-1A    7.596488   61269.8   163.2    0.00000  -0.09118  -0.12680  -0.00000
  0-1A  ->  3-1A   12.237106   98698.9   101.3    0.00000  -0.00000   0.00000  -0.00000
  0-1A  ->  4-1A   12.428466  100242.4    99.8    0.00000   0.10020  -0.07753  -0.00000
  0-1A  ->  5-1A   12.428466  100242.4    99.8    0.00000   0.07753   0.10020  -0.00000
  0-1A  ->  6-1A   16.093711  129804.5    77.0   -0.00000  -0.00000   0.00000  -0.00000
  0-1A  ->  7-1A   16.306858  131523.7    76.0    0.00000  -0.01479   0.01343  -0.00000
  0-1A  ->  8-1A   16.306858  131523.7    76.0    0.00000  -0.01343  -0.01479   0.00000
  0-1A  ->  9-1A   16.389852  132193.1    75.6    0.00000  -0.00000  -0.00000  -0.00000
  0-1A  -> 10-1A   16.394362  132229.5    75.6    0.00000   0.00000  -0.00000  -0.00000

Total run time:        4.639 sec

           *** ORCA-CIS/TD-DFT FINISHED WITHOUT ERROR ***
-----------------------
CIS/TD-DFT TOTAL ENERGY
-----------------------

    E(SCF)  =   -459.319935596 Eh
    DE(CIS) =      0.279165814 Eh (Root  1)
    ----------------------------- ---------
    E(tot)  =   -459.040769783 Eh


------------------------
TD-DFT GRADIENT XC SETUP
------------------------

Building densities                     ... done
Calculating rho(r) on the grid         ... done
Building xc-kernel on the grid         ... done
Building xc 3rd derivative on the grid ... done
                *** TD-DFT GRADIENT CALCULATION INITIALIZED ***

--------------------------
TD-DFT/TDA RELAXED DENSITY
--------------------------

Reference wavefunction             ... RHF
State of interest                  ... 1
Basis dimension                    ... 56
DFT-XC contribution needed         ... YES
RI-approximation                   ... YES
Do Coulomb                         ... YES
Do Exchange                        ... NO
Need Hartree-Fock Exchange         ... NO
facj, facx                         ...  2.000,  0.000
Conventional                       ... NO
Range separation                   ... NO
Triplet state                      ... NO
Spin Flip                          ... NO
CIS-vectors being read from        ... HCl_TDDFT-LDA.cis
 => Number of Vectors found: 10
 => Orbital Window: 5...8 -> 9...55

Reading the CIS file                     ... done
Norm of the CI vector                    ... 1.000000000
Making the CIS (pseudo)densities         ... done
Making operators G(D) and Q(T)           ... (SHARK-ok)done
Transforming the Fock operators          ... done
Making the frozen-core relaxed density   ... done
Constructing the G(H) operator           ... (SHARK-ok)done
Transforming the G(H) operator           ... done
Calculating the CIS Lagrangian           ... done
Solving the Z-vector equations           ... 

Using XC Grid                  ... (HCl_TDDFT-LDA.grid_cpscf.tmp) 
Recalculating density on grid  ... (HCl_TDDFT-LDA.grho_cpscf0.tmp) done
Calculating the xc-kernel      ... (HCl_TDDFT-LDA.fxc_cpscf0.tmp) done

-------------------
SHARK CP-SCF DRIVER
-------------------

Dimension of the orbital basis          ...     56
Dimension of the CPSCF-problem          ...    423
Number of operators                     ...      1
Max. number of iterations               ...    128
Convergence Tolerance                   ... 3.0e-05
Number of perturbations                 ...      1
Perturbation type                       ... REAL

----------------------------
POPLE LINEAR EQUATION SOLVER
----------------------------

  ITERATION   0:   ||err||_max =   1.1744e+00 (   0.1 sec)
  ITERATION   1:   ||err||_max =   3.0660e-02 (   0.1 sec)
  ITERATION   2:   ||err||_max =   5.7100e-03 (   0.0 sec)
  ITERATION   3:   ||err||_max =   6.5462e-04 (   0.0 sec)
  ITERATION   4:   ||err||_max =   5.2130e-05 (   0.1 sec)
  ITERATION   5:   ||err||_max =   2.2465e-06 (   0.1 sec)

Finalizing the relaxed density           ... done
Storing the relaxed density              ... done
Constructing the G(Z) operator           ... (SHARK-ok)done
Adding the XC terms                      ... done
Transforming the G(Z) operator           ... done
Making the W-matrix                      ... done
Finalizing the W-matrix                  ... done
Transforming the W-matrix                ... done
Nuc. rep. gradient        (SHARK) ... done (  0.0 sec)
HCore & Overlap gradient  (SHARK) ... done (  0.0 sec)
Split-RIJ-J gradient      (SHARK) ... done (  0.1 sec)
done (  0.1 sec)

                 ---------------------------
                 EXCITED STATE GRADIENT DONE
                 ---------------------------

------------------
CARTESIAN GRADIENT
------------------

   1   Cl  :    0.000000000    0.000000000   -0.165140971
   2   H   :    0.000000000    0.000000000    0.165141503

Difference to translation invariance:
           :    0.0000000000    0.0000000001    0.0000005316

Difference to rotation invariance:
           :    0.0000000001   -0.0000000000    0.0000000000

Norm of the Cartesian gradient     ...    0.2335449774
RMS gradient                       ...    0.0953443378
MAX gradient                       ...    0.1651415031

------------------------------------------------------------------------------
                  RELAXED CIS/TDA DENSITY POPULATION ANALYSIS
                                   IROOT 1
------------------------------------------------------------------------------
------------------------------------------------------------------------------
                           ORCA POPULATION ANALYSIS
------------------------------------------------------------------------------
Input electron density              ... HCl_TDDFT-LDA.cispre.singlet.iroot1
BaseName (.gbw .S,...)              ... HCl_TDDFT-LDA

                    ********************************
                    * MULLIKEN POPULATION ANALYSIS *
                    ********************************

-----------------------
MULLIKEN ATOMIC CHARGES
-----------------------
   0 Cl:    0.467063
   1 H :   -0.467063
Sum of atomic charges:   -0.0000000

--------------------------------
MULLIKEN REDUCED ORBITAL CHARGES
--------------------------------
  0 Cls       :     5.908702  s :     5.908702
      pz      :     3.601967  p :    10.586709
      px      :     3.648588
      py      :     3.336153
      dz2     :     0.034682  d :     0.038020
      dxz     :     0.000149
      dyz     :    -0.000154
      dx2y2   :     0.001669
      dxy     :     0.001674
      f0      :    -0.000296  f :    -0.000493
      f+1     :    -0.000091
      f-1     :    -0.000175
      f+2     :     0.000033
      f-2     :     0.000034
      f+3     :     0.000000
      f-3     :     0.000000
  1 H s       :     1.454749  s :     1.454749
      pz      :    -0.005004  p :     0.010549
      px      :     0.009636
      py      :     0.005917
      dz2     :    -0.000073  d :     0.001764
      dxz     :     0.000992
      dyz     :     0.000842
      dx2y2   :     0.000002
      dxy     :     0.000002


                     *******************************
                     * LOEWDIN POPULATION ANALYSIS *
                     *******************************

----------------------
LOEWDIN ATOMIC CHARGES
----------------------
   0 Cl:    0.742995
   1 H :   -0.742995

-------------------------------
LOEWDIN REDUCED ORBITAL CHARGES
-------------------------------
  0 Cls       :     5.659945  s :     5.659945
      pz      :     3.565768  p :    10.459124
      px      :     3.597791
      py      :     3.295566
      dz2     :     0.128642  d :     0.132027
      dxz     :     0.000001
      dyz     :     0.000051
      dx2y2   :     0.001664
      dxy     :     0.001669
      f0      :     0.005235  f :     0.005909
      f+1     :     0.000287
      f-1     :     0.000322
      f+2     :     0.000032
      f-2     :     0.000033
      f+3     :     0.000000
      f-3     :     0.000000
  1 H s       :     1.223280  s :     1.223280
      pz      :     0.384172  p :     0.471733
      px      :     0.049971
      py      :     0.037590
      dz2     :     0.027687  d :     0.047982
      dxz     :     0.011224
      dyz     :     0.009055
      dx2y2   :     0.000008
      dxy     :     0.000008


                      *****************************
                      * MAYER POPULATION ANALYSIS *
                      *****************************

  NA   - Mulliken gross atomic population
  ZA   - Total nuclear charge
  QA   - Mulliken gross atomic charge
  VA   - Mayer's total valence
  BVA  - Mayer's bonded valence
  FA   - Mayer's free valence

  ATOM       NA         ZA         QA         VA         BVA        FA
  0 Cl    16.5329    17.0000     0.4671     0.9904     0.1213     0.8691
  1 H      1.4671     1.0000    -0.4671     1.1729     0.1213     1.0516

  Mayer bond orders larger than 0.100000
B(  0-Cl,  1-H ) :   0.1213 


-------
TIMINGS
-------

Total TD-DFT gradient time  ....        0.823 sec

Fock matrix formation       ....       0.108 sec  ( 13.1%)
  Coulomb formation         ....       0.048 sec  ( 44.4% of F)
  XC integration            ....       0.060 sec  ( 55.6% of F)
Z-vector equation           ....       0.412 sec  ( 50.1%)
One electron gradient       ....       0.005 sec  (  0.6%)
RI-J Coulomb gradient       ....       0.056 sec  (  6.8%)
XC gradient                 ....       0.129 sec  ( 15.7%)

Maximum memory used throughout the entire CIS-calculation: 12.4 MB
=> NOW LEAVING ORCA_CIS

-------------------------   --------------------
FINAL SINGLE POINT ENERGY      -459.040769782513
-------------------------   --------------------

------------------------------------------------------------------------------
                         ORCA GEOMETRY RELAXATION STEP
------------------------------------------------------------------------------

Reading the OPT-File                    .... done
Getting information on internals        .... done
Copying old internal coords+grads       .... done
Making the new internal coordinates     .... (2022 redundants) done
Validating the new internal coordinates .... (2022 redundants) done
Calculating the B-matrix                .... done
Calculating the G,G- and P matrices     .... done
Transforming gradient to internals      .... done
Projecting the internal gradient        .... done
Number of atoms                         ....   2
Number of internal coordinates          ....   1
Current Energy                          ....  -459.040769783 Eh
Current gradient norm                   ....     0.233544977 Eh/bohr
Maximum allowed component of the step   ....  0.300
Current trust radius                    ....  0.300
Evaluating the initial hessian          ....  (Almloef) done
Projecting the Hessian                  .... done
Forming the augmented Hessian           .... done
Diagonalizing the augmented Hessian     .... done
Last element of RFO vector              ....  0.940805277
Lowest eigenvalues of augmented Hessian:
 -0.059496068
Length of the computed step             ....  0.360273844
Warning: the length of the step is outside the trust region - taking restricted step instead
The input lambda is                     ....     0.397881
   iter:   5  x=    0.391288  g=420412.606445 f(x)=  1064.055035
   iter:  10  x=    0.341384  g=  963.764842 f(x)=    18.411108
   iter:  15  x=    0.024689  g=    2.726344 f(x)=     0.280059
   iter:  20  x=   -0.151590  g=    0.326995 f(x)=     0.000000
The output lambda is                    ....    -0.151590 (22 iterations)
The final length of the internal step   ....  0.300000000
Converting the step to Cartesian space:
 Initial RMS(Int)=    0.3000000000
Transforming coordinates:
 Iter   0:  RMS(Cart)=    0.0866025404 RMS(Int)=    0.3000000000
done
Storing new coordinates                 .... done

                                .--------------------.
          ----------------------|Geometry convergence|-------------------------
          Item                value                   Tolerance       Converged
          ---------------------------------------------------------------------
          RMS gradient        0.1651412373            0.0000100000      NO
          MAX gradient        0.1651412373            0.0001000000      NO
          RMS step            0.3000000000            0.0000100000      NO
          MAX step            0.3000000000            0.0001000000      NO
          ........................................................
          Max(Bonds)      0.1588      Max(Angles)    0.00
          Max(Dihed)        0.00      Max(Improp)    0.00
          ---------------------------------------------------------------------

The optimization has not yet converged - more geometry cycles are needed


    ---------------------------------------------------------------------------
                         Redundant Internal Coordinates
                            (Angstroem and degrees)

        Definition                    Value    dE/dq     Step     New-Value
    ----------------------------------------------------------------------------
     1. B(H   1,Cl  0)                1.2822 -0.165141  0.1588    1.4409   
    ----------------------------------------------------------------------------

Geometry step timings:
Preparation and reading OPT file:      0.001 s (33.333 %)
Internal coordinates            :      0.000 s ( 0.000 %)
B/P matrices and projection     :      0.000 s ( 0.000 %)
Hessian update/contruction      :      0.001 s (33.333 %)
Making the step                 :      0.000 s ( 0.000 %)
Converting the step to Cartesian:      0.001 s (33.333 %)
Storing new data                :      0.000 s ( 0.000 %)
Checking convergence            :      0.000 s ( 0.000 %)
Final printing                  :      0.000 s ( 0.000 %)
Total time                      :      0.003 s

Time for energy+gradient        :      7.047 s
Time for complete geometry iter :      7.103 s

         *************************************************************
         *                GEOMETRY OPTIMIZATION CYCLE   2            *
         *************************************************************
---------------------------------
CARTESIAN COORDINATES (ANGSTROEM)
---------------------------------
  Cl     0.000000    0.000000    0.153521
  H      0.000000    0.000000   -1.287391

----------------------------
CARTESIAN COORDINATES (A.U.)
----------------------------
  NO LB      ZA    FRAG     MASS         X           Y           Z
   0 Cl   17.0000    0    35.453    0.000000    0.000000    0.290112
   1 H     1.0000    0     1.008    0.000000    0.000000   -2.432816

--------------------------------
INTERNAL COORDINATES (ANGSTROEM)
--------------------------------
 Cl     0   0   0     0.000000000000     0.00000000     0.00000000
 H      1   0   0     1.440911162490     0.00000000     0.00000000

---------------------------
INTERNAL COORDINATES (A.U.)
---------------------------
 Cl     0   0   0     0.000000000000     0.00000000     0.00000000
 H      1   0   0     2.722927480416     0.00000000     0.00000000

------------------------------------------------------------------------------
                   ___                                                        
                  /   \      - P O W E R E D   B Y -                         
                 /     \                                                     
                 |  |  |   _    _      __       _____    __    __             
                 |  |  |  | |  | |    /  \     |  _  \  |  |  /  |          
                  \  \/   | |  | |   /    \    | | | |  |  | /  /          
                 / \  \   | |__| |  /  /\  \   | |_| |  |  |/  /          
                |  |  |   |  __  | /  /__\  \  |    /   |      \           
                |  |  |   | |  | | |   __   |  |    \   |  |\   \          
                \     /   | |  | | |  |  |  |  | |\  \  |  | \   \       
                 \___/    |_|  |_| |__|  |__|  |_| \__\ |__|  \__/        
                                                                              
                      - O R C A' S   B I G   F R I E N D -                    
                                      &                                       
                       - I N T E G R A L  F E E D E R -                       
                                                                              
 v1 FN, 2020, v2 2021, v3 2022-2024                                           
------------------------------------------------------------------------------


----------------------
SHARK INTEGRAL PACKAGE
----------------------

Number of atoms                             ...      2
Number of basis functions                   ...     56
Number of shells                            ...     20
Maximum angular momentum                    ...      3
Integral batch strategy                     ... SHARK/LIBINT Hybrid
RI-J (if used) integral strategy            ... SPLIT-RIJ (Revised 2003 algorithm where possible)
Printlevel                                  ...      1
Contraction scheme used                     ... SEGMENTED contraction
Prescreening option                         ... SCHWARTZ
   Thresh                                   ... 1.000e-12
   Tcut                                     ... 1.000e-14
   Tpresel                                  ... 1.000e-14 
Coulomb Range Separation                    ... NOT USED
Exchange Range Separation                   ... NOT USED
Multipole approximations                    ... NOT USED
Finite Nucleus Model                        ... NOT USED
CABS basis                                  ... NOT available
Auxiliary Coulomb fitting basis             ... AVAILABLE
   # of basis functions in Aux-J            ...     62
   # of shells in Aux-J                     ...     22
   Maximum angular momentum in Aux-J        ...      4
Auxiliary J/K fitting basis                 ... NOT available
Auxiliary Correlation fitting basis         ... NOT available
Auxiliary 'external' fitting basis          ... NOT available

Checking pre-screening integrals            ... done (  0.0 sec) Dimension = 20
Check shell pair data                       ... done (  0.0 sec)
Shell pair information
Shell pair cut-off parameter TPreSel        ...   1.0e-14
Total number of shell pairs                 ...       210
Shell pairs after pre-screening             ...       210
Total number of primitive shell pairs       ...       668
Primitive shell pairs kept                  ...       646
          la=0 lb=0:     36 shell pairs
          la=1 lb=0:     56 shell pairs
          la=1 lb=1:     28 shell pairs
          la=2 lb=0:     32 shell pairs
          la=2 lb=1:     28 shell pairs
          la=2 lb=2:     10 shell pairs
          la=3 lb=0:      8 shell pairs
          la=3 lb=1:      7 shell pairs
          la=3 lb=2:      4 shell pairs
          la=3 lb=3:      1 shell pairs

Calculating one electron integrals          ... done (  0.0 sec)
Calculating RI/J V-Matrix + Cholesky decomp.... done (  0.0 sec)
Calculating Nuclear repulsion               ... done (  0.0 sec) ENN=      6.243280484797 Eh

Diagonalization of the overlap matrix:
Smallest eigenvalue                        ... 7.726e-03
Time for diagonalization                   ...    0.001 sec
Threshold for overlap eigenvalues          ... 1.000e-07
Number of eigenvalues below threshold      ... 0
Time for construction of square roots      ...    0.001 sec
Total time needed                          ...    0.008 sec

-------------------
DFT GRID GENERATION
-------------------

General Integration Accuracy     IntAcc      ... 4.388
Radial Grid Type                 RadialGrid  ... OptM3 with GC (2021)
Angular Grid (max. ang.)         AngularGrid ... 4 (Lebedev-302)
Angular grid pruning method      GridPruning ... 4 (adaptive)
Weight generation scheme         WeightScheme... mBecke (2022)
Basis function cutoff            BFCut       ... 1.0000e-12
Integration weight cutoff        WCut        ... 1.0000e-14
Partially contracted basis set               ... off
Rotationally invariant grid construction     ... off
Angular grids for H and He will be reduced by one unit

Total number of grid points                  ...    10687
Total number of batches                      ...      168
Average number of points per batch           ...       63
Average number of grid points per atom       ...     5344
Initializing property integral containers    ... done (  0.0 sec)

SHARK setup successfully completed in   0.1 seconds

Maximum memory used throughout the entire STARTUP-calculation: 15.1 MB
Occupation numbers will be reassigned to an Aufbau configuration
             **** ENERGY FILE WAS UPDATED (HCl_TDDFT-LDA.en.tmp) ****
Finished Guess after   0.1 sec
Maximum memory used throughout the entire GUESS-calculation: 7.3 MB
----------------------------------------D-I-I-S--------------------------------------------
Iteration    Energy (Eh)           Delta-E    RMSDP     MaxDP     DIISErr   Damp  Time(sec)
-------------------------------------------------------------------------------------------
               ***  Starting incremental Fock matrix formation  ***
    1    -459.3066053489367846     0.00e+00  5.38e-04  7.07e-03  6.42e-02  0.700   0.1
    2    -459.3077957141545085    -1.19e-03  4.55e-04  5.90e-03  4.51e-02  0.700   0.1
                               ***Turning on AO-DIIS***
    3    -459.3085823439723754    -7.87e-04  3.29e-04  4.52e-03  3.15e-02  0.700   0.1
    4    -459.3091071732033583    -5.25e-04  7.82e-04  1.06e-02  2.21e-02  0.000   0.1
                              *** Initializing SOSCF ***
---------------------------------------S-O-S-C-F--------------------------------------
Iteration    Energy (Eh)           Delta-E    RMSDP     MaxDP     MaxGrad    Time(sec)
--------------------------------------------------------------------------------------
    5    -459.3103083414378602    -1.20e-03  7.97e-05  1.05e-03  2.11e-03     0.1
               *** Restarting incremental Fock matrix formation ***
    6    -459.3103147777631534    -6.44e-06  4.84e-05  6.20e-04  3.51e-04     0.1
    7    -459.3103140630926191     7.15e-07  3.07e-05  4.30e-04  4.36e-04     0.1
    8    -459.3103155319452640    -1.47e-06  8.41e-06  1.45e-04  3.93e-05     0.1
    9    -459.3103155274516780     4.49e-09  4.95e-06  9.80e-05  4.67e-05     0.1
   10    -459.3103155463174403    -1.89e-08  5.13e-07  9.76e-06  2.58e-06     0.1
   11    -459.3103155463628582    -4.54e-11  1.58e-07  2.88e-06  1.22e-06     0.1
                 **** Energy Check signals convergence ****

               *****************************************************
               *                     SUCCESS                       *
               *           SCF CONVERGED AFTER  11 CYCLES          *
               *****************************************************

             **** ENERGY FILE WAS UPDATED (HCl_TDDFT-LDA.en.tmp) ****

----------------
TOTAL SCF ENERGY
----------------

Total Energy       :       -459.31031554636286 Eh          -12498.46910 eV

Components:
Nuclear Repulsion  :          6.24328048479702 Eh             169.88830 eV
Electronic Energy  :       -465.55359603115994 Eh          -12668.35739 eV
One Electron Energy:       -648.40393828713741 Eh          -17643.96816 eV
Two Electron Energy:        182.85034225597749 Eh            4975.61077 eV

Virial components:
Potential Energy   :       -918.85710849404893 Eh          -25003.37307 eV
Kinetic Energy     :        459.54679294768607 Eh           12504.90397 eV
Virial Ratio       :          1.99948541170355

DFT components:
N(Alpha)           :        9.000000217664 electrons
N(Beta)            :        9.000000217664 electrons
N(Total)           :       18.000000435329 electrons
E(X)               :      -25.649768012106 Eh       
E(C)               :       -1.382957446903 Eh       
E(XC)              :      -27.032725459010 Eh       

---------------
SCF CONVERGENCE
---------------

  Last Energy change         ...    4.5418e-11  Tolerance :   1.0000e-09
  Last MAX-Density change    ...    2.8838e-06  Tolerance :   1.0000e-08
  Last RMS-Density change    ...    1.5767e-07  Tolerance :   1.0000e-09
  Last DIIS Error            ...    2.1061e-03  Tolerance :   1.0000e-08
  Last Orbital Gradient      ...    1.2176e-06  Tolerance :   2.0000e-06
  Last Orbital Rotation      ...    1.3946e-06  Tolerance :   2.0000e-06


Total SCF time: 0 days 0 hours 0 min 0 sec 
Finished LeanSCF after   1.0 sec

Maximum memory used throughout the entire LEANSCF-calculation: 5.4 MB

------------------------------------------------------------------------------
                         ORCA PROPERTY INTEGRAL CALCULATIONS
------------------------------------------------------------------------------

GBWName                                   ... HCl_TDDFT-LDA.gbw
Number of atoms                           ...      2
Number of basis functions                 ...     56
Max core memory                           ...   4000 MB

Dipole integrals                          ... YES
Quadrupole integrals                      ...  NO
Linear momentum integrals                 ... YES
Angular momentum integrals                ... YES
Higher moments length integrals           ...  NO
Higher moments velocity integrals         ...  NO
Kinetic energy integrals                  ...  NO
GIAO right hand sides                     ...  NO
GIAO dipole derivative integrals          ...  NO
SOC integrals                             ...  NO
EPR diamagnetic integrals (GIAO)          ...  NO
EPR gauge integrals                       ...  NO
Field gradient integrals                  ...  NO (   0 nuclei)
Spin-dipole/Fermi contact integrals       ...  NO (   0 nuclei)
Contact density integrals                 ...  NO (   0 nuclei)
Nucleus-orbit integrals                   ...  NO (   0 nuclei)
Geometric perturbations                   ...  NO (   2 nuclei)

Choice of electric origin   ... Center of mass
Position of electric origin ... (  0.0000,  0.0000,  0.2148) 
Choice of magnetic origin   ... GIAO
[...]
                     * LOEWDIN POPULATION ANALYSIS *
                     *******************************

----------------------
LOEWDIN ATOMIC CHARGES
----------------------
   0 Cl:    0.004666
   1 H :   -0.004666

-------------------------------
LOEWDIN REDUCED ORBITAL CHARGES
-------------------------------
  0 Cls       :     5.970632  s :     5.970632
      pz      :     4.014314  p :    11.011691
      px      :     3.206682
      py      :     3.790695
      dz2     :     0.012563  d :     0.013408
      dxz     :     0.000400
      dyz     :     0.000106
      dx2y2   :     0.000169
      dxy     :     0.000170
      f0      :    -0.000148  f :    -0.000397
      f+1     :    -0.000227
      f-1     :    -0.000141
      f+2     :     0.000060
      f-2     :     0.000060
      f+3     :    -0.000000
      f-3     :     0.000000
  1 H s       :     0.943247  s :     0.943247
      pz      :     0.055185  p :     0.058958
      px      :     0.001206
      py      :     0.002567
      dz2     :     0.002129  d :     0.002461
      dxz     :     0.000120
      dyz     :     0.000212
      dx2y2   :     0.000000
      dxy     :     0.000000


                      *****************************
                      * MAYER POPULATION ANALYSIS *
                      *****************************

  NA   - Mulliken gross atomic population
  ZA   - Total nuclear charge
  QA   - Mulliken gross atomic charge
  VA   - Mayer's total valence
  BVA  - Mayer's bonded valence
  FA   - Mayer's free valence

  ATOM       NA         ZA         QA         VA         BVA        FA
  0 Cl    17.0488    17.0000    -0.0488     0.8431     0.1292     0.7139
  1 H      0.9512     1.0000     0.0488     1.0073     0.1292     0.8781

  Mayer bond orders larger than 0.100000
B(  0-Cl,  1-H ) :   0.1292 


-------
TIMINGS
-------

Total TD-DFT gradient time  ....        1.007 sec

Fock matrix formation       ....       0.139 sec  ( 13.8%)
  Coulomb formation         ....       0.074 sec  ( 53.2% of F)
  XC integration            ....       0.065 sec  ( 46.8% of F)
Z-vector equation           ....       0.480 sec  ( 47.7%)
One electron gradient       ....       0.005 sec  (  0.5%)
RI-J Coulomb gradient       ....       0.067 sec  (  6.7%)
XC gradient                 ....       0.133 sec  ( 13.2%)

Maximum memory used throughout the entire CIS-calculation: 12.4 MB
=> NOW LEAVING ORCA_CIS

-------------------------   --------------------
FINAL SINGLE POINT ENERGY      -459.128714992775
-------------------------   --------------------

                                *** OPTIMIZATION RUN DONE ***


------------------------------------------------------------------------------
                              ORCA PROPERTY CALCULATIONS
------------------------------------------------------------------------------

GBWName                                 ... HCl_TDDFT-LDA.gbw
Number of atoms                         ...      2
Number of basis functions               ...     56
Max core memory                         ...   4000 MB

Electric properties:
Dipole moment                           ... YES
Quadrupole moment                       ...  NO
Static polarizability (Dipole/Dipole)   ...  NO
Static polarizability (Dipole/Quad.)    ...  NO
Static polarizability (Quad./Quad.)     ...  NO
Static polarizability (Velocity)        ...  NO

Atomic electric properties:
Dipole moment                           ...  NO
Quadrupole moment                       ...  NO
Static polarizability                   ...  NO

Choice of electric origin               ... Center of mass
Position of electric origin             ...     0.000000     0.000000     0.847146

General magnetic properties:
Magnetizability                         ...  NO

EPR properties:
g-Tensor (aka g-matrix)                 ...  NO
Zero-Field splitting spin-orbit         ...  NO
Zero-field splitting spin-spin          ...  NO
Hyperfine couplings                     ...  NO (   0 nuclei)
Quadrupole couplings                    ...  NO (   0 nuclei)
Contact density                         ...  NO (   0 nuclei)

NMR properties:
Chemical shifts                         ...  NO (   0 nuclei)
Spin-rotation constants                 ...  NO (   0 nuclei)
Spin-spin couplings                     ...  NO (   0 nuclei,    0 pairs)

Choice of magnetic origin               ... GIAO
Position of magnetic origin             ...     0.000000     0.000000     0.000000

Properties with geometric perturbations:
SCF Hessian                             ...  NO
IR spectrum                             ... YES
VCD spectrum                            ...  NO
X-ray spectroscopy properties:
SCF XES/XAS/RIXS spectra                ...  NO


-------------
DIPOLE MOMENT
-------------

Method             : SCF
Type of density    : Electron Density
Multiplicity       :   1
Irrep              :   0
Energy             :  -459.2036884522802325 Eh
Relativity type    : 
Basis              : AO
                                X                 Y                 Z
Electronic contribution:      0.000000000      -0.000000000       1.212969721
Nuclear contribution   :      0.000000000       0.000000000      -2.040419376
                        -----------------------------------------
Total Dipole Moment    :      0.000000000      -0.000000000      -0.827449654
                        -----------------------------------------
Magnitude (a.u.)       :      0.827449654
Magnitude (Debye)      :      2.103209877



--------------------
Rotational spectrum 
--------------------
 
Rotational constants in cm-1:             0.000000             3.723251             3.723251 
Rotational constants in MHz :             0.000000        111620.266967        111620.266967 

Dipole components along the rotational axes: 
x,y,z [a.u.] :    -0.827450    -0.000000     0.000000 
x,y,z [Debye]:    -2.103210    -0.000000     0.000000 

 

-------------
DIPOLE MOMENT
-------------

Method             : TDA/CIS
Type of density    : Electron Density
Level              : Relaxed density
State              :   1
Multiplicity       :   1
Irrep              :   0
Energy             :     0.0000000000000000 Eh
Relativity type    : 
Basis              : AO
                                X                 Y                 Z
Electronic contribution:     -0.000000000      -0.000000000       1.927025199
Nuclear contribution   :      0.000000000       0.000000000      -2.040419376
                        -----------------------------------------
Total Dipole Moment    :     -0.000000000      -0.000000000      -0.113394177
                        -----------------------------------------
Magnitude (a.u.)       :      0.113394177
Magnitude (Debye)      :      0.288225092



--------------------
Rotational spectrum 
--------------------
 
Rotational constants in cm-1:             0.000000             3.723251             3.723251 
Rotational constants in MHz :             0.000000        111620.266967        111620.266967 

Dipole components along the rotational axes: 
x,y,z [a.u.] :    -0.113394    -0.000000    -0.000000 
x,y,z [Debye]:    -0.288225    -0.000000    -0.000000 

 

Dipole moment calculation done in   0.1 sec 

Maximum memory used throughout the entire PROP-calculation: 7.8 MB

----------------------------------------------------------------------------
                           ORCA NUMERICAL FREQUENCIES
----------------------------------------------------------------------------

Number of atoms                ... 2
Central differences            ... used
Number of displacements        ... 12
Numerical increment            ... 5.000e-03 bohr
IR-spectrum generation         ... on
Raman-spectrum generation      ... off
Surface Crossing Hessian       ... off

The output will be reduced. Please look at the following files:
SCF program output             ... >HCl_TDDFT-LDA.lastscf
Integral program output        ... >HCl_TDDFT-LDA.lastint
Gradient program output        ... >HCl_TDDFT-LDA.lastgrad
Dipole moment program output   ... >HCl_TDDFT-LDA.lastmom

	<< Calculating gradient on displaced geometry   1 (of  12) >>
	<< Calculating gradient on displaced geometry   2 (of  12) >>
	<< Calculating gradient on displaced geometry   3 (of  12) >>
	<< Calculating gradient on displaced geometry   4 (of  12) >>
	<< Calculating gradient on displaced geometry   5 (of  12) >>
	<< Calculating gradient on displaced geometry   6 (of  12) >>
	<< Calculating gradient on displaced geometry   7 (of  12) >>
	<< Calculating gradient on displaced geometry   8 (of  12) >>
	<< Calculating gradient on displaced geometry   9 (of  12) >>
	<< Calculating gradient on displaced geometry  10 (of  12) >>
	<< Calculating gradient on displaced geometry  11 (of  12) >>
	<< Calculating gradient on displaced geometry  12 (of  12) >>

-----------------------
VIBRATIONAL FREQUENCIES
-----------------------

Scaling factor for frequencies =  1.000000000  (already applied!)

     0:       0.00 cm**-1
     1:       0.00 cm**-1
     2:       0.00 cm**-1
     3:       0.00 cm**-1
     4:       0.00 cm**-1
     5:     809.77 cm**-1


------------
NORMAL MODES
------------

These modes are the Cartesian displacements weighted by the diagonal matrix
M(i,i)=1/sqrt(m[i]) where m[i] is the mass of the displaced atom
Thus, these vectors are normalized but *not* orthogonal

                  0          1          2          3          4          5    
      0       0.000000   0.000000   0.000000   0.000000   0.000000   0.000000
      1       0.000000   0.000000   0.000000   0.000000   0.000000   0.000000
      2       0.000000   0.000000   0.000000   0.000000   0.000000  -0.028421
      3       0.000000   0.000000   0.000000   0.000000   0.000000   0.000000
      4       0.000000   0.000000   0.000000   0.000000   0.000000   0.000000
      5       0.000000   0.000000   0.000000   0.000000   0.000000   0.999596


-----------
IR SPECTRUM
-----------

 Mode   freq       eps      Int      T**2         TX        TY        TZ
       cm**-1   L/(mol*cm) km/mol    a.u.
----------------------------------------------------------------------------
  5:    809.77   0.006914   34.94  0.002664  (-0.000000 -0.000000  0.051617)

* The epsilon (eps) is given for a Dirac delta lineshape.
** The dipole moment derivative (T) already includes vibrational overlap.

The first frequency considered to be a vibration is 5
The total number of vibrations considered is 1


--------------------------
THERMOCHEMISTRY AT 298.15K
--------------------------

Temperature         ...   298.15 K
Pressure            ...     1.00 atm
Total Mass          ...    36.46 AMU
Quasi RRHO          ...     True
Cut-Off Frequency   ...     1.00 cm^-1
The molecule is recognized as being linear

Throughout the following assumptions are being made:
  (1) The electronic state is orbitally nondegenerate
  (2) There are no thermally accessible electronically excited states
  (3) Hindered rotations indicated by low frequency modes are not
      treated as such but are treated as vibrations and this may
      cause some error
  (4) All equations used are the standard statistical mechanics
      equations for an ideal gas
  (5) All vibrations are strictly harmonic

freq.     809.77  E(vib)   ...       0.05 

------------
INNER ENERGY
------------

The inner energy is: U= E(el) + E(ZPE) + E(vib) + E(rot) + E(trans)
    E(el)   - is the total energy from the electronic structure calculation
              = E(kin-el) + E(nuc-el) + E(el-el) + E(nuc-nuc)
    E(ZPE)  - the the zero temperature vibrational energy from the frequency calculation
    E(vib)  - the the finite temperature correction to E(ZPE) due to population
              of excited vibrational states
    E(rot)  - is the rotational thermal energy
    E(trans)- is the translational thermal energy

Summary of contributions to the inner energy U:
Electronic energy                ...   -459.12871500 Eh
Zero point energy                ...      0.00184480 Eh       1.16 kcal/mol
Thermal vibrational correction   ...      0.00007564 Eh       0.05 kcal/mol
Thermal rotational correction    ...      0.00094418 Eh       0.59 kcal/mol
Thermal translational correction ...      0.00141627 Eh       0.89 kcal/mol
-----------------------------------------------------------------------
Total thermal energy                   -459.12443411 Eh


Summary of corrections to the electronic energy:
(perhaps to be used in another calculation)
Total thermal correction                  0.00243609 Eh       1.53 kcal/mol
Non-thermal (ZPE) correction              0.00184480 Eh       1.16 kcal/mol
-----------------------------------------------------------------------
Total correction                          0.00428089 Eh       2.69 kcal/mol


--------
ENTHALPY
--------

The enthalpy is H = U + kB*T
                kB is Boltzmann's constant
Total thermal energy              ...   -459.12443411 Eh 
Thermal Enthalpy correction       ...      0.00094421 Eh       0.59 kcal/mol
-----------------------------------------------------------------------
Total Enthalpy                    ...   -459.12348990 Eh


Note: Rotational entropy computed according to Herzberg 
Infrared and Raman Spectra, Chapter V,1, Van Nostrand Reinhold, 1945 
Point Group:  C(inf)v, Symmetry Number:   1  
Rotational constants in cm-1:     0.000000     3.723251     3.723251 

Vibrational entropy computed according to the QRRHO of S. Grimme
Chem.Eur.J. 2012 18 9955 using a reference frequency of 100.0 cm-1


-------
ENTROPY
-------

The entropy contributions are T*S = T*(S(el)+S(vib)+S(rot)+S(trans))
     S(el)   - electronic entropy
     S(vib)  - vibrational entropy
     S(rot)  - rotational entropy
     S(trans)- translational entropy
The entropies will be listed as multiplied by the temperature to get
units of energy

Electronic entropy                ...      0.00000000 Eh      0.00 kcal/mol
Vibrational entropy               ...      0.00009486 Eh      0.06 kcal/mol
Rotational entropy                ...      0.00473905 Eh      2.97 kcal/mol
Translational entropy             ...      0.01744233 Eh     10.95 kcal/mol
-----------------------------------------------------------------------
Final entropy term                ...      0.02227623 Eh     13.98 kcal/mol


-------------------
GIBBS FREE ENERGY
-------------------

The Gibbs free energy is G = H - T*S

Total enthalpy                    ...   -459.12348990 Eh 
Total entropy correction          ...     -0.02227623 Eh    -13.98 kcal/mol
-----------------------------------------------------------------------
Final Gibbs free energy         ...   -459.14576614 Eh

For completeness - the Gibbs free energy minus the electronic energy
G-E(el)                           ...     -0.01705113 Eh    -10.70 kcal/mol



--------------------------------
SUGGESTED CITATIONS FOR THIS RUN
--------------------------------

Below you find a list of papers that are relevant to this ORCA run
We neither can nor want to force you to cite these papers, but we appreciate if you do
You receive ORCA, which is the product of decades of hard work by many enthusiastic individuals, for free
The only thing we kindly ask in return is that you cite our papers,
We deeply appreciate it, if you show your appreciation for ORCA by not just citing the generic ORCA reference.

Please note that relegating all ORCA citations to the supporting information does *not* help us.
SI sections are not indexed - citations you put there will not count into any citation statistics
But we need these citations in order to attract the funding resources that allow us to do what we are doing

Therefore, if you are a happy ORCA user, please consider citing a few of the papers listed below in the main body of your paper

In addition to the list printed below, the program has created the file HCl_TDDFT-LDA.bibtex that contains the list in bibtex format
You can import this file easily into all common literature databanks and citation aid programs


List of essential papers. We consider these as the minimum necessary citations

  1. Neese,F.
     Software update: the ORCA program system, version 5.0
     WIRES Comput. Molec. Sci., 2022 12(1)e1606
     doi.org/10.1002/wcms.1606

List of papers to cite with high priority. The work reported in these papers was absolutely
necessary for this run to complete.
Our perspective: the developers of density functionals and basis sets usually get cited in chemistry papers
Good! But without the algorithms to do something with them, the functionals or basis sets would not do anything.
Hence, in our opinion, the algorithm design and method developments papers are equally worthy of getting cited

  1. Neese,F.; Olbrich,G.
     Efficient use of the resolution of the identity approximation in time-dependent density functional calculations with hybrid density functionals
     Chem. Phys. Lett., 2002 362 170-178
     doi.org/10.1016/s0009-2614(02)01053-9
  2. Neese,F.
     An improvement of the resolution of the identity approximation for the formation of the Coulomb matrix
     J. Comp. Chem., 2003 24(14)1740-1747
     doi.org/10.1002/jcc.10318
  3. Petrenko,T.; Kossmann,S.; Neese,F.
     Efficient time-dependent density functional theory approximations for hybrid density functionals: Analytical gradients and parallelization
     J. Chem. Phys., 2011 134 054116
     doi.org/10.1063/1.3533441
  4. Bykov,D.; Petrenko,T.; Izsak,R.; Kossmann,S.; Becker,U.; Valeev,E.; Neese,F.
     Efficient implementation of the analytic second derivatives of Hartree-Fock and hybrid DFT energies: a detailed analysis of different approximations
     Molec. Phys., 2015 113 1961-1977
     doi.org/10.1080/00268976.2015.1025114
  5. Neese,F.
     The SHARK Integral Generation and Digestion System
     J. Comp. Chem., 2022  1-16
     doi.org/10.1002/jcc.26942

List of suggested additional citations. These are papers that are important in the 'surrounding' of 
of this run, or papers that preceded the highly important papers. If you like your results we are grateful for a citation.

  1. Neese,F.
     The ORCA program system
     WIRES Comput. Molec. Sci., 2012 2(1)73-78
     doi.org/10.1002/wcms.81
  2. Neese,F.
     Software update: the ORCA program system, version 4.0
     WIRES Comput. Molec. Sci., 2018 8(1)1-6
     doi.org/10.1002/wcms.1327
  3. Neese,F.; Wennmohs,F.; Becker,U.; Riplinger,C.
     The ORCA quantum chemistry program package
     J. Chem. Phys., 2020 152 Art. No. L224108
     doi.org/10.1063/5.0004608

List of optional additional citations

  1. Neese,F.
     Approximate second-order SCF convergence for spin unrestricted wavefunctions
     Chem. Phys. Lett., 2000 325(1-3)93-98
     doi.org/10.1016/s0009-2614(00)00662-x

Timings for individual modules:

Sum of individual times          ...      187.973 sec (=   3.133 min)
Startup calculation              ...        1.638 sec (=   0.027 min)   0.9 %
SCF iterations                   ...       12.564 sec (=   0.209 min)   6.7 %
Property integrals               ...        1.206 sec (=   0.020 min)   0.6 %
Property calculations            ...        0.115 sec (=   0.002 min)   0.1 %
CIS module                       ...       83.039 sec (=   1.384 min)  44.2 %
Geometry relaxation              ...        0.124 sec (=   0.002 min)   0.1 %
Numerical frequency calculation  ...       89.287 sec (=   1.488 min)  47.5 %
                             ****ORCA TERMINATED NORMALLY****
TOTAL RUN TIME: 0 days 0 hours 3 minutes 1 seconds 143 msec
