
                                 *****************
                                 * O   R   C   A *
                                 *****************

                                            #,                                       
                                            ###                                      
                                            ####                                     
                                            #####                                    
                                            ######                                   
                                           ########,                                 
                                     ,,################,,,,,                         
                               ,,#################################,,                 
                          ,,##########################################,,             
                       ,#########################################, ''#####,          
                    ,#############################################,,   '####,        
                  ,##################################################,,,,####,       
                ,###########''''           ''''###############################       
              ,#####''   ,,,,##########,,,,          '''####'''          '####       
            ,##' ,,,,###########################,,,                        '##       
           ' ,,###''''                  '''############,,,                           
         ,,##''                                '''############,,,,        ,,,,,,###''
      ,#''                                            '''#######################'''  
     '                                                          ''''####''''         
             ,#######,   #######,   ,#######,      ##                                
            ,#'     '#,  ##    ##  ,#'     '#,    #''#        ,####,   ,####,        
            ##       ##  ##   ,#'  ##            #'  '#       #'       #'  '#        
            ##       ##  #######   ##           ,######,      #####,   #    #        
            '#,     ,#'  ##    ##  '#,     ,#' ,#      #,     #,   #   #,  ,#        
             '#######'   ##     ##  '#######'  #'      '#     '####' # '####'        



                #########################################################
                #                        -***-                          #
                #          Department of theory and spectroscopy        #
                #                                                       #
                #                      Frank Neese                      #
                #                                                       #
                #     Directorship, Architecture, Infrastructure        #
                #                    SHARK, DRIVERS                     #
                #        Core code/Algorithms in most modules           #
                #                                                       #
                #        Max Planck Institute fuer Kohlenforschung      #
                #                Kaiser Wilhelm Platz 1                 #
                #                 D-45470 Muelheim/Ruhr                 #
                #                      Germany                          #
                #                                                       #
                #                  All rights reserved                  #
                #                        -***-                          #
                #########################################################


                         Program Version 6.0.1  -  RELEASE   -


 With contributions from (in alphabetic order):
[Max-Planck-Institut fuer Kohlenforschung]                               
  Daniel Aravena         : Magnetic Suceptibility                        
  Michael Atanasov       : Ab Initio Ligand Field Theory (pilot matlab implementation)
  Alexander A. Auer      : GIAO ZORA, VPT2 properties, NMR spectrum      
  Ute Becker             : All parallelization in ORCA, NUMFREQ, NUMCALC 
  Giovanni Bistoni       : ED, misc. LED, open-shell LED, HFLD           
  Martin Brehm           : Molecular dynamics                            
  Dmytro Bykov           : pre 5.0 version of the SCF Hessian            
  Marcos Casanova-Páez   : Triplet and SCS-CIS(D). UHF-(DLPNO)-IP/EA/STEOM-CCSD. UHF-CVS-IP/STEOM-CCSD   
  Vijay G. Chilkuri      : MRCI spin determinant printing, contributions to CSF-ICE 
  Pauline Colinet        : FMM embedding                                 
  Dipayan Datta          : RHF DLPNO-CCSD density                        
  Achintya Kumar Dutta   : EOM-CC, STEOM-CC                              
  Nicolas Foglia         : Exact transition moments, OPA infrastructure, MCD improvements    
  Dmitry Ganyushin       : Spin-Orbit,Spin-Spin,Magnetic field MRCI      
  Miquel Garcia-Rates    : C-PCM and meta-GGA Hessian, CCSD/C-PCM, Gaussian charge scheme 
  Tiago L. C. Gouveia    : GS-ROHF, GS-ROCIS                             
  Yang Guo               : DLPNO-NEVPT2, F12-NEVPT2, CIM, IAO-localization        
  Andreas Hansen         : Spin unrestricted coupled pair/coupled cluster methods 
  Ingolf Harden          : AUTO-CI MPn and infrastructure                
  Benjamin Helmich-Paris : MC-RPA, TRAH-(SCF,CASSCF), AVAS, COSX integrals, SCF dyn. polar. 
  Lee Huntington         : MR-EOM, pCC                                   
  Robert Izsak           : Overlap fitted RIJCOSX, COSX-SCS-MP3, EOM     
  Riya Kayal             : Wick's Theorem for AUTO-CI, AUTO-CI UHF-CCSDT 
  Emily Kempfer          : AUTO-CI, RHF CISDT and CCSDT                  
  Christian Kollmar      : KDIIS, OOCD, Brueckner-CCSD(T), CCSD density, CASPT2, CASPT2-K, improved NEVPT2 
  Axel Koslowski         : Symmetry handling                             
  Simone Kossmann        : meta-GGA functionals, TD-DFT gradient, OOMP2, (MP2 Hessian; deprecated post 5.0) 
  Lucas Lang             : DCDCAS                                        
  Marvin Lechner         : AUTO-CI (C++ implementation), FIC-MRCC        
  Spencer Leger          : CASSCF response                               
  Dagmar Lenk            : GEPOL surface, SMD, ORCA-2-JSON               
  Dimitrios Liakos       : Extrapolation schemes; Compound Job, initial MDCI parallelization 
  Dimitrios Manganas     : Further ROCIS development; embedding schemes. LFT, Crystal Embedding 
  Dimitrios Pantazis     : SARC Basis sets                               
  Anastasios Papadopoulos: AUTO-CI, single reference methods and gradients 
  Taras Petrenko         : pre 6.0 DFT Hessian and TD-DFT gradient, (ASA, deprecated), ECA, 1-Electron XAS/XES, NRVS 
  Peter Pinski           : DLPNO-MP2, DLPNO-MP2 Gradient                 
  Christoph Reimann      : Effective Core Potentials                     
  Marius Retegan         : Local ZFS, SOC                                
  Christoph Riplinger    : Optimizer, TS searches, QM/MM, DLPNO-CCSD(T), (RO)-DLPNO pert. Triples 
  Michael Roemelt        : Original ROCIS implementation                 
  Masaaki Saitow         : Open-shell DLPNO-CCSD energy and density      
  Barbara Sandhoefer     : DKH picture change effects                    
  Kantharuban Sivalingam : CASSCF convergence/infrastructure, NEVPT2 and variants, FIC-MRCI 
  Bernardo de Souza      : ESD, SOC TD-DFT                               
  Georgi L. Stoychev     : AutoAux, RI-MP2 NMR, DLPNO-MP2 response, X2C  
  Van Anh Tran           : RI-MP2 g-tensors                              
  Willem Van den Heuvel  : Paramagnetic NMR                              
  Zikuan Wang            : NOTCH, Electric field optimization            
  Frank Wennmohs         : Technical directorship and infrastructure     
  Hang Xu                : AUTO-CI-Response properties                   
                                                                         
[FACCTs GmbH]                                                            
  Markus Bursch, Miquel Garcia-Rates, Christoph Riplinger, Bernardo de Souza, Georgi L. Stoychev 
                                                                 
  APM, Basis sets (HGBS, AHGBS, def-TZVP (Ac-Lr), def2-XVPD (La-Lu)), CI-OPT, improved COSX, DLPNO-Multilevel,           
  DOCKER, DRACO, updates on ESD, GOAT, IRC, LR-CPCM, MBIS, meta-GGA TD-DFT gradient, ML-optimized integration grids, 
  MM, NACMEs, nearIR, NEB, NEB-TS, NL-DFT gradient (VV10), 2- and 3-layer-ONIOM, interface openCOSMO-RS, QMMM,   
  Crystal-QMMM, SF, symmetry and pop. for TD-DFT, r2SCAN hybrids, SOLVATOR                                   
                                                                         
[Other institutions]                                                     
  V. Asgeirsson          : NEB                                           
  Christoph Bannwarth    : sTDA-DFT, sTD-DFT, PBEh-3c, B97-3c, D3        
  Sebastian Ehlert       : rSCAN, r2SCAN, r2SCAN-3c, D4, dhf basis sets  
  Marvin Friede          : D4 for Fr, Ra, Ac-Lr                          
  Lars Goerigk           : TD-DFT with DH, B97 family of functionals     
  Stefan Grimme          : VdW corrections, initial TS optimization, DFT functionals, gCP, sTDA/sTD-DF 
  Waldemar Hujo          : DFT-NL                                        
  H. Jonsson             : NEB                                           
  Holger Kruse           : gCP                                           
  Marcel Mueller         : wB97X-3c, vDZP basis set                      
  Hagen Neugebauer       : wr2SCAN                                       
  Tobias Risthaus        : range-separated hybrid DFT                    
  Lukas Wittmann         : regularized MP2, r2SCAN double-hybrids, wr2SCAN        
                                                                         
We gratefully acknowledge several colleagues who have allowed us to      
interface, adapt or use parts of their codes:                            
  Ed Valeev, F. Pavosevic, A. Kumar             : LibInt (2-el integral package), F12 methods 
  Garnet Chan, S. Sharma, J. Yang, R. Olivares  : DMRG                   
  Ulf Ekstrom                                   : XCFun DFT Library      
  Mihaly Kallay                                 : mrcc  (arbitrary order and MRCC methods)
  Frank Weinhold                                : gennbo (NPA and NBO analysis)           
  Simon Mueller                                 : openCOSMO-RS                            
  Christopher J. Cramer and Donald G. Truhlar   : smd solvation model                     
  S Lehtola, MJT Oliveira, MAL Marques          : LibXC Library                           
  Liviu Ungur et al                             : ANISO software                          


 Your calculation uses the libint2 library for the computation of 2-el integrals
 For citations please refer to: http://libint.valeyev.net

 Your ORCA version has been built with support for libXC version: 6.2.2
 For citations please refer to: https://libxc.gitlab.io

 This ORCA versions uses:
   CBLAS   interface :  Fast vector & matrix operations
   LAPACKE interface :  Fast linear algebra routines
   Shared memory     :  Shared parallel matrices


NOTE: MaxCore=4000 MB was set to SCF,MP2,MDCI,CIPSI,MRCI and CIS
      => If you want to overwrite this, your respective input block should be placed after the MaxCore statement
Warning: RI is on but no J-basis has been assigned. Assigning Def2/J (nothing to worry about!)
================================================================================

----- Orbital basis set information -----
Your calculation utilizes the basis: def2-TZVPP
   F. Weigend and R. Ahlrichs, Phys. Chem. Chem. Phys. 7, 3297 (2005).

----- AuxJ basis set information -----
Your calculation utilizes the auxiliary basis: def2/J
   F. Weigend, Phys. Chem. Chem. Phys. 8, 1057 (2006).

================================================================================
                                        WARNINGS
                       Please study these warnings very carefully!
================================================================================


WARNING: Analytical and numerical frequencies both set to true
  ===> : Disabling Anfreq
INFO   : Checking CIS options ...

WARNING: Geometry Optimization
  ===> : Switching off AutoStart
         For restart on a previous wavefunction, please use MOREAD

WARNING: CIS/ROCIS methods need fully converged wavefunctions
  ===> : Setting SCFConvForced true
         You can overwrite this default with %scf ConvForced false 


================================================================================
                                       INPUT FILE
================================================================================
NAME = HCl_TDDFT-B3LYP.inp
|  1> ! B3LYP def2-TZVPP Opt TightOpt VeryTightSCF
|  2> 
|  3> ! Freq
|  4> ! NumFreq
|  5> 
|  6> %scf
|  7>    MaxIter 400          # Máximo de iteraciones permitidas para el SCF
|  8> end
|  9> 
| 10> %geom
| 11>    TolRMSD 1.0e-5
| 12>    TolMAXD 1.0e-4
| 13>    TolRMSG 1.0e-5
| 14>    TolMAXG 1.0e-4
| 15> end
| 16> 
| 17> %tddft
| 18>   nroots 10
| 19> end
| 20> 
| 21> %pal
| 22>    nprocs 1
| 23> end
| 24> 
| 25> 
| 26> %MaxCore 4000            # Memoria máxima por núcleo (en MB)
| 27> 
| 28> * xyz 0 1
| 29> Cl     0.000000    0.000000    0.074144
| 30> H      0.000000    0.000000   -1.208014
| 31> **                         ****END OF INPUT****
================================================================================

                       *****************************
                       * Geometry Optimization Run *
                       *****************************

Geometry optimization settings:
Update method            Update   .... BFGS
Choice of coordinates    CoordSys .... (2022) Redundant Internals
Initial Hessian          InHess   .... Almloef's Model
Max. no of cycles        MaxIter  .... 50

Convergence Tolerances:
Energy Change            TolE     ....  1.0000e-06 Eh
Max. Gradient            TolMAXG  ....  1.0000e-04 Eh/bohr
RMS Gradient             TolRMSG  ....  1.0000e-05 Eh/bohr
Max. Displacement        TolMAXD  ....  1.0000e-04 bohr
RMS Displacement         TolRMSD  ....  1.0000e-05 bohr
Strict Convergence                .... False

------------------------------------------------------------------------------
                        ORCA OPTIMIZATION COORDINATE SETUP
------------------------------------------------------------------------------

The optimization will be done in redundant internal coordinates (2022)
Making redundant internal coordinates   ...  (2022 redundants) done
Evaluating the initial hessian          ...  (Almloef) done
Evaluating the coordinates              ...  done
Calculating the B-matrix                .... done
Calculating the G-matrix                .... done
Diagonalizing the G-matrix              .... done
The first mode is                       ....    0
The number of degrees of freedom        ....    1

    -----------------------------------------------------------------
                    Redundant Internal Coordinates


    -----------------------------------------------------------------
         Definition                    Initial Value    Approx d2E/dq
    -----------------------------------------------------------------
      1. B(H   1,Cl  0)                  1.2822         0.398881   
    -----------------------------------------------------------------

Number of atoms                         .... 2
Number of degrees of freedom            .... 1


         *************************************************************
         *                GEOMETRY OPTIMIZATION CYCLE   1            *
         *************************************************************
---------------------------------
CARTESIAN COORDINATES (ANGSTROEM)
---------------------------------
  Cl     0.000000    0.000000    0.074144
  H      0.000000    0.000000   -1.208014

----------------------------
CARTESIAN COORDINATES (A.U.)
----------------------------
  NO LB      ZA    FRAG     MASS         X           Y           Z
   0 Cl   17.0000    0    35.453    0.000000    0.000000    0.140112
   1 H     1.0000    0     1.008    0.000000    0.000000   -2.282816

--------------------------------
INTERNAL COORDINATES (ANGSTROEM)
--------------------------------
 Cl     0   0   0     0.000000000000     0.00000000     0.00000000
 H      1   0   0     1.282158000000     0.00000000     0.00000000

---------------------------
INTERNAL COORDINATES (A.U.)
---------------------------
 Cl     0   0   0     0.000000000000     0.00000000     0.00000000
 H      1   0   0     2.422927480416     0.00000000     0.00000000

---------------------
BASIS SET INFORMATION
---------------------
There are 2 groups of distinct atoms

 Group   1 Type Cl  : 14s9p3d1f contracted to 5s5p3d1f pattern {73211/51111/111/1}
 Group   2 Type H   : 5s2p1d contracted to 3s2p1d pattern {311/11/1}

Atom   0Cl   basis set group =>   1
Atom   1H    basis set group =>   2
---------------------------------
AUXILIARY/J BASIS SET INFORMATION
---------------------------------
There are 2 groups of distinct atoms

 Group   1 Type Cl  : 14s5p5d2f1g contracted to 8s4p3d1f1g pattern {71111111/2111/311/2/1}
 Group   2 Type H   : 5s2p1d contracted to 3s1p1d pattern {311/2/1}

Atom   0Cl   basis set group =>   1
Atom   1H    basis set group =>   2
------------------------------------------------------------------------------
                             ORCA STARTUP CALCULATIONS
                           -- RI-GTO INTEGRALS CHOSEN --
------------------------------------------------------------------------------
------------------------------------------------------------------------------
                   ___                                                        
                  /   \      - P O W E R E D   B Y -                         
                 /     \                                                     
                 |  |  |   _    _      __       _____    __    __             
                 |  |  |  | |  | |    /  \     |  _  \  |  |  /  |          
                  \  \/   | |  | |   /    \    | | | |  |  | /  /          
                 / \  \   | |__| |  /  /\  \   | |_| |  |  |/  /          
                |  |  |   |  __  | /  /__\  \  |    /   |      \           
                |  |  |   | |  | | |   __   |  |    \   |  |\   \          
                \     /   | |  | | |  |  |  |  | |\  \  |  | \   \       
                 \___/    |_|  |_| |__|  |__|  |_| \__\ |__|  \__/        
                                                                              
                      - O R C A' S   B I G   F R I E N D -                    
                                      &                                       
                       - I N T E G R A L  F E E D E R -                       
                                                                              
 v1 FN, 2020, v2 2021, v3 2022-2024                                           
------------------------------------------------------------------------------


----------------------
SHARK INTEGRAL PACKAGE
----------------------

Number of atoms                             ...      2
Number of basis functions                   ...     56
Number of shells                            ...     20
Maximum angular momentum                    ...      3
Integral batch strategy                     ... SHARK/LIBINT Hybrid
RI-J (if used) integral strategy            ... SPLIT-RIJ (Revised 2003 algorithm where possible)
Printlevel                                  ...      1
Contraction scheme used                     ... SEGMENTED contraction
Prescreening option                         ... SCHWARTZ
   Thresh                                   ... 1.000e-12
   Tcut                                     ... 1.000e-14
   Tpresel                                  ... 1.000e-14 
Coulomb Range Separation                    ... NOT USED
Exchange Range Separation                   ... NOT USED
Multipole approximations                    ... NOT USED
Finite Nucleus Model                        ... NOT USED
CABS basis                                  ... NOT available
Auxiliary Coulomb fitting basis             ... AVAILABLE
   # of basis functions in Aux-J            ...     62
   # of shells in Aux-J                     ...     22
   Maximum angular momentum in Aux-J        ...      4
Auxiliary J/K fitting basis                 ... NOT available
Auxiliary Correlation fitting basis         ... NOT available
Auxiliary 'external' fitting basis          ... NOT available

Checking pre-screening integrals            ... done (  0.0 sec) Dimension = 20
Check shell pair data                       ... done (  0.0 sec)
Shell pair information
Shell pair cut-off parameter TPreSel        ...   1.0e-14
Total number of shell pairs                 ...       210
Shell pairs after pre-screening             ...       210
Total number of primitive shell pairs       ...       668
Primitive shell pairs kept                  ...       654
          la=0 lb=0:     36 shell pairs
          la=1 lb=0:     56 shell pairs
          la=1 lb=1:     28 shell pairs
          la=2 lb=0:     32 shell pairs
          la=2 lb=1:     28 shell pairs
          la=2 lb=2:     10 shell pairs
          la=3 lb=0:      8 shell pairs
          la=3 lb=1:      7 shell pairs
          la=3 lb=2:      4 shell pairs
          la=3 lb=3:      1 shell pairs

Calculating one electron integrals          ... done (  0.0 sec)
Calculating RI/J V-Matrix + Cholesky decomp.... done (  0.0 sec)
Calculating Nuclear repulsion               ... done (  0.0 sec) ENN=      7.016305744768 Eh

Diagonalization of the overlap matrix:
Smallest eigenvalue                        ... 4.016e-03
Time for diagonalization                   ...    0.000 sec
Threshold for overlap eigenvalues          ... 1.000e-07
Number of eigenvalues below threshold      ... 0
Time for construction of square roots      ...    0.001 sec
Total time needed                          ...    0.007 sec

-------------------
DFT GRID GENERATION
-------------------

General Integration Accuracy     IntAcc      ... 4.388
Radial Grid Type                 RadialGrid  ... OptM3 with GC (2021)
Angular Grid (max. ang.)         AngularGrid ... 4 (Lebedev-302)
Angular grid pruning method      GridPruning ... 4 (adaptive)
Weight generation scheme         WeightScheme... mBecke (2022)
Basis function cutoff            BFCut       ... 1.0000e-12
Integration weight cutoff        WCut        ... 1.0000e-14
Partially contracted basis set               ... off
Rotationally invariant grid construction     ... off
Angular grids for H and He will be reduced by one unit

Total number of grid points                  ...    10685
Total number of batches                      ...      168
Average number of points per batch           ...       63
Average number of grid points per atom       ...     5343

--------------------
COSX GRID GENERATION
--------------------

GRIDX 1
-------
General Integration Accuracy     IntAcc      ... 3.816
Radial Grid Type                 RadialGrid  ... OptM3 with GC (2021)
Angular Grid (max. ang.)         AngularGrid ... 1 (Lebedev-50)
Angular grid pruning method      GridPruning ... 4 (adaptive)
Weight generation scheme         WeightScheme... mBecke (2022)
Basis function cutoff            BFCut       ... 1.0000e-12
Integration weight cutoff        WCut        ... 1.0000e-14
Partially contracted basis set               ... on
Rotationally invariant grid construction     ... off
Angular grids for H and He will be reduced by one unit

Total number of grid points                  ...     2412
Total number of batches                      ...       20
Average number of points per batch           ...      120
Average number of grid points per atom       ...     1206
UseSFitting                                  ... on

GRIDX 2
-------
General Integration Accuracy     IntAcc      ... 4.020
Radial Grid Type                 RadialGrid  ... OptM3 with GC (2021)
Angular Grid (max. ang.)         AngularGrid ... 2 (Lebedev-110)
Angular grid pruning method      GridPruning ... 4 (adaptive)
Weight generation scheme         WeightScheme... mBecke (2022)
Basis function cutoff            BFCut       ... 1.0000e-12
Integration weight cutoff        WCut        ... 1.0000e-14
Partially contracted basis set               ... on
Rotationally invariant grid construction     ... off
Angular grids for H and He will be reduced by one unit

Total number of grid points                  ...     2781
Total number of batches                      ...       23
Average number of points per batch           ...      120
Average number of grid points per atom       ...     1391
UseSFitting                                  ... on

GRIDX 3
-------
General Integration Accuracy     IntAcc      ... 4.338
Radial Grid Type                 RadialGrid  ... OptM3 with GC (2021)
Angular Grid (max. ang.)         AngularGrid ... 3 (Lebedev-194)
Angular grid pruning method      GridPruning ... 4 (adaptive)
Weight generation scheme         WeightScheme... mBecke (2022)
Basis function cutoff            BFCut       ... 1.0000e-12
Integration weight cutoff        WCut        ... 1.0000e-14
Partially contracted basis set               ... on
Rotationally invariant grid construction     ... off
Angular grids for H and He will be reduced by one unit

Total number of grid points                  ...     6811
Total number of batches                      ...       54
Average number of points per batch           ...      126
Average number of grid points per atom       ...     3406
UseSFitting                                  ... on
Initializing property integral containers    ... done (  0.0 sec)

SHARK setup successfully completed in   0.2 seconds

Maximum memory used throughout the entire STARTUP-calculation: 15.1 MB
-------------------------------------------------------------------------------
                                 ORCA GUESS
                   Start orbitals & Density for SCF / CASSCF
-------------------------------------------------------------------------------

------------
SCF SETTINGS
------------
Hamiltonian:
 Density Functional     Method          .... DFT(GTOs)
 Exchange Functional    Exchange        .... B88
   X-Alpha parameter    XAlpha          ....  0.666667
   Becke's b parameter  XBeta           ....  0.004200
 Correlation Functional Correlation     .... LYP
 LDA part of GGA corr.  LDAOpt          .... VWN-5
 Gradients option       PostSCFGGA      .... off
 Hybrid DFT is turned on
   Fraction HF Exchange ScalHFX         ....  0.200000
   Scaling of DF-GGA-X  ScalDFX         ....  0.720000
   Scaling of DF-GGA-C  ScalDFC         ....  0.810000
   Scaling of DF-LDA-C  ScalLDAC        ....  1.000000
   Perturbative correction              ....  0.000000
   NL short-range parameter             ....  4.800000
 RI-approximation to the Coulomb term is turned on
   Number of AuxJ basis functions       .... 62
   RIJ-COSX (HFX calculated with COS-X)).... on


General Settings:
 Integral files         IntName         .... HCl_TDDFT-B3LYP
 Hartree-Fock type      HFTyp           .... RHF
 Total Charge           Charge          ....    0
 Multiplicity           Mult            ....    1
 Number of Electrons    NEL             ....   18
 Basis Dimension        Dim             ....   56
 Nuclear Repulsion      ENuc            ....      7.0163057448 Eh

Convergence Acceleration:
 AO-DIIS                CNVDIIS         .... on
   Start iteration      DIISMaxIt       ....    12
   Startup error        DIISStart       ....  0.200000
   # of expansion vecs  DIISMaxEq       ....     5
   Bias factor          DIISBfac        ....   1.050
   Max. coefficient     DIISMaxC        ....  10.000
 MO-DIIS                CNVKDIIS        .... off
 Trust-Rad. Augm. Hess. CNVTRAH         .... auto
   Auto Start mean grad. ratio tolernc. ....  1.125000
   Auto Start start iteration           ....    50
   Auto Start num. interpolation iter.  ....    10
   Max. Number of Micro iterations      ....    24
   Max. Number of Macro iterations      .... Maxiter - #DIIS iter
   Number of Davidson start vectors     ....     2
   Converg. threshold    (grad. norm)   ....   2.000e-06
   Grad. Scal. Fac. for Micro threshold ....   0.100
   Minimum threshold for Micro iter.    ....   1.000e-02
   NR start threshold (gradient norm)   ....   1.000e-04
   Initial trust radius                 ....   0.400
   Minimum AH scaling param. (alpha)    ....   1.000
   Maximum AH scaling param. (alpha)    .... 1000.000
   Quad. conv. algorithm                .... NR
   White noise on init. David. guess    .... on
   Maximum white noise                  ....   0.010
   Pseudo random numbers                .... off
   Inactive MOs                         .... canonical
   Orbital update algorithm             .... Taylor
   Preconditioner                       .... Diag
   Full preconditioner red. dimension   ....   250
 SOSCF                  CNVSOSCF        .... on
   Start iteration      SOSCFMaxIt      ....   150
   Startup grad/error   SOSCFStart      ....  0.003300
   Hessian update       SOSCFHessUp     .... L-BFGS
 Level Shifting         CNVShift        .... on
   Level shift para.    LevelShift      ....    0.2500
   Turn off err/grad.   ShiftErr        ....    0.0010
 Zerner damping         CNVZerner       .... off
 Static damping         CNVDamp         .... on
   Fraction old density DampFac         ....    0.7000
   Max. Damping (<1)    DampMax         ....    0.9800
   Min. Damping (>=0)   DampMin         ....    0.0000
   Turn off err/grad.   DampErr         ....    0.1000

SCF Procedure:
 Maximum # iterations   MaxIter         ....   400
 SCF integral mode      SCFMode         .... Direct
   Integral package                     .... SHARK and LIBINT hybrid scheme
 Reset frequency        DirectResetFreq ....    20
 Integral Threshold     Thresh          ....  1.000e-12 Eh
 Primitive CutOff       TCut            ....  1.000e-14 Eh

Convergence Tolerance:
 Convergence Check Mode ConvCheckMode   .... Total+1el-Energy
 Convergence forced     ConvForced      .... 1
 Energy Change          TolE            ....  1.000e-09 Eh
 1-El. energy change                    ....  1.000e-06 Eh
 Orbital Gradient       TolG            ....  2.000e-06
 Orbital Rotation angle TolX            ....  2.000e-06
 DIIS Error             TolErr          ....  1.000e-08

------------------------------
INITIAL GUESS: MODEL POTENTIAL
------------------------------
Loading Hartree-Fock densities                     ... done
Calculating cut-offs                               ... done
Initializing the effective Hamiltonian             ... done
Setting up the integral package (SHARK)            ... done
Starting the Coulomb interaction                   ... done (   0.0 sec)
Making the grid                                    ... done (   0.0 sec)
Mapping shells                                     ... done
Starting the XC term evaluation                    ... done (   0.0 sec)
  promolecular density results
     # of electrons  =     17.999586661
     EX              =    -27.818171954
     EC              =     -0.724830161
     EX+EC           =    -28.543002116
Transforming the Hamiltonian                       ... done (   0.0 sec)
Diagonalizing the Hamiltonian                      ... done (   0.0 sec)
Back transforming the eigenvectors                 ... done (   0.0 sec)
Now organizing SCF variables                       ... done
                      ------------------
                      INITIAL GUESS DONE (   0.0 sec)
                      ------------------
             **** ENERGY FILE WAS UPDATED (HCl_TDDFT-B3LYP.en.tmp) ****
Finished Guess after   0.1 sec
Maximum memory used throughout the entire GUESS-calculation: 7.3 MB

-------------------------------------------------------------------------------------------
                                      ORCA LEAN-SCF
                              memory conserving SCF solver
-------------------------------------------------------------------------------------------

----------------------------------------D-I-I-S--------------------------------------------
Iteration    Energy (Eh)           Delta-E    RMSDP     MaxDP     DIISErr   Damp  Time(sec)
-------------------------------------------------------------------------------------------
               ***  Starting incremental Fock matrix formation  ***
    1    -460.7597944103543455     0.00e+00  1.68e-03  3.85e-02  7.17e-02  0.700   0.2
    2    -460.7631003891221440    -3.31e-03  1.21e-03  2.48e-02  4.27e-02  0.700   0.2
                               ***Turning on AO-DIIS***
    3    -460.7646583904167414    -1.56e-03  4.19e-04  6.59e-03  2.15e-02  0.700   0.2
    4    -460.7655471722665084    -8.89e-04  6.83e-04  1.07e-02  1.35e-02  0.000   0.1
                              *** Initializing SOSCF ***
---------------------------------------S-O-S-C-F--------------------------------------
Iteration    Energy (Eh)           Delta-E    RMSDP     MaxDP     MaxGrad    Time(sec)
--------------------------------------------------------------------------------------
    5    -460.7674311640332121    -1.88e-03  6.15e-05  1.03e-03  1.34e-03     0.2
               *** Restarting incremental Fock matrix formation ***
    6    -460.7674352502391457    -4.09e-06  1.93e-05  2.85e-04  1.31e-04     0.1
    7    -460.7674352892661886    -3.90e-08  7.45e-06  1.06e-04  1.09e-04     0.2
    8    -460.7674353740356423    -8.48e-08  1.43e-06  3.34e-05  1.50e-05     0.1
    9    -460.7674353744092173    -3.74e-10  6.30e-07  1.44e-05  4.42e-06     0.1
                 **** Energy Check signals convergence ****

               *****************************************************
               *                     SUCCESS                       *
               *           SCF CONVERGED AFTER   9 CYCLES          *
               *****************************************************

Recomputing exchange energy using gridx3       ... done (    0.126 sec)
Old exchange energy                            :     -5.575502751 Eh
New exchange energy                            :     -5.575504531 Eh
Exchange energy change after final integration :     -0.000001780 Eh
Total energy after final integration           :   -460.767437155 Eh
             **** ENERGY FILE WAS UPDATED (HCl_TDDFT-B3LYP.en.tmp) ****

----------------
TOTAL SCF ENERGY
----------------

Total Energy       :       -460.76743715456342 Eh          -12538.11939 eV

Components:
Nuclear Repulsion  :          7.01630574476781 Eh             190.92339 eV
Electronic Energy  :       -467.78374111917702 Eh          -12729.04273 eV
One Electron Energy:       -650.01592895705676 Eh          -17687.83266 eV
Two Electron Energy:        182.23218783787974 Eh            4958.78993 eV

Virial components:
Potential Energy   :       -920.93003469078303 Eh          -25059.78026 eV
Kinetic Energy     :        460.16259753621955 Eh           12521.66087 eV
Virial Ratio       :          2.00131440412928

DFT components:
N(Alpha)           :        9.000000191683 electrons
N(Beta)            :        9.000000191683 electrons
N(Total)           :       18.000000383366 electrons
E(X)               :      -22.125897333647 Eh       
E(C)               :       -0.852748590536 Eh       
E(XC)              :      -22.978645924183 Eh       

---------------
SCF CONVERGENCE
---------------

  Last Energy change         ...    3.7357e-10  Tolerance :   1.0000e-09
  Last MAX-Density change    ...    1.4399e-05  Tolerance :   1.0000e-08
  Last RMS-Density change    ...    6.3022e-07  Tolerance :   1.0000e-09
  Last DIIS Error            ...    1.3387e-03  Tolerance :   1.0000e-08
  Last Orbital Gradient      ...    4.4213e-06  Tolerance :   2.0000e-06
  Last Orbital Rotation      ...    3.5162e-06  Tolerance :   2.0000e-06


----------------
ORBITAL ENERGIES
----------------

  NO   OCC          E(Eh)            E(eV) 
   0   2.0000    -101.528787     -2762.7388 
   1   2.0000      -9.461384      -257.4573 
   2   2.0000      -7.222644      -196.5381 
   3   2.0000      -7.214393      -196.3136 
   4   2.0000      -7.214393      -196.3136 
   5   2.0000      -0.843420       -22.9506 
   6   2.0000      -0.471496       -12.8301 
   7   2.0000      -0.331706        -9.0262 
   8   2.0000      -0.331706        -9.0262 
   9   0.0000       0.000644         0.0175 
  10   0.0000       0.179260         4.8779 
  11   0.0000       0.335657         9.1337 
  12   0.0000       0.341385         9.2896 
  13   0.0000       0.341385         9.2896 
  14   0.0000       0.351107         9.5541 
  15   0.0000       0.351107         9.5541 
  16   0.0000       0.421710        11.4753 
  17   0.0000       0.421717        11.4755 
  18   0.0000       0.599113        16.3027 
  19   0.0000       0.731839        19.9143 
*Only the first 10 virtual orbitals were printed.

                    ********************************
                    * MULLIKEN POPULATION ANALYSIS *
                    ********************************

-----------------------
MULLIKEN ATOMIC CHARGES
-----------------------
   0 Cl:   -0.178958
   1 H :    0.178958
Sum of atomic charges:   -0.0000000

--------------------------------
MULLIKEN REDUCED ORBITAL CHARGES
--------------------------------
  0 Cls       :     5.927754  s :     5.927754
      pz      :     3.268132  p :    11.217964
      px      :     3.974916
      py      :     3.974916
      dz2     :     0.027764  d :     0.030531
      dxz     :     0.001384
      dyz     :     0.001384
      dx2y2   :     0.000000
      dxy     :     0.000000
      f0      :     0.002343  f :     0.002709
      f+1     :     0.000183
      f-1     :     0.000183
      f+2     :     0.000000
      f-2     :    -0.000000
      f+3     :     0.000000
      f-3     :     0.000000

  1 H s       :     0.753514  s :     0.753514
      pz      :     0.019453  p :     0.064125
      px      :     0.022336
      py      :     0.022336
      dz2     :     0.001040  d :     0.003403
      dxz     :     0.001181
      dyz     :     0.001181
      dx2y2   :     0.000000
      dxy     :     0.000000



                     *******************************
                     * LOEWDIN POPULATION ANALYSIS *
                     *******************************

----------------------
LOEWDIN ATOMIC CHARGES
----------------------
   0 Cl:    0.212684
   1 H :   -0.212684

-------------------------------
LOEWDIN REDUCED ORBITAL CHARGES
-------------------------------
  0 Cls       :     5.597510  s :     5.597510
      pz      :     3.319482  p :    11.144824
      px      :     3.912671
      py      :     3.912671
      dz2     :     0.040162  d :     0.040525
      dxz     :     0.000182
      dyz     :     0.000182
      dx2y2   :     0.000000
      dxy     :     0.000000
      f0      :     0.004198  f :     0.004457
      f+1     :     0.000129
      f-1     :     0.000129
      f+2     :     0.000000
      f-2     :     0.000000
      f+3     :     0.000000
      f-3     :     0.000000

  1 H s       :     0.871425  s :     0.871425
      pz      :     0.149671  p :     0.297283
      px      :     0.073806
      py      :     0.073806
      dz2     :     0.017551  d :     0.043975
      dxz     :     0.013212
      dyz     :     0.013212
      dx2y2   :     0.000000
      dxy     :     0.000000



                      *****************************
                      * MAYER POPULATION ANALYSIS *
                      *****************************

  NA   - Mulliken gross atomic population
  ZA   - Total nuclear charge
  QA   - Mulliken gross atomic charge
  VA   - Mayer's total valence
  BVA  - Mayer's bonded valence
  FA   - Mayer's free valence

  ATOM       NA         ZA         QA         VA         BVA        FA
  0 Cl    17.1790    17.0000    -0.1790     1.0295     1.0295    -0.0000
  1 H      0.8210     1.0000     0.1790     1.0295     1.0295    -0.0000

  Mayer bond orders larger than 0.100000
B(  0-Cl,  1-H ) :   1.0295 

-------
TIMINGS
-------

Total SCF time: 0 days 0 hours 0 min 1 sec 

Total time                  ....       1.609 sec
Sum of individual times     ....       1.586 sec  ( 98.6%)

SCF preparation             ....       0.044 sec  (  2.7%)
Fock matrix formation       ....       1.044 sec  ( 64.9%)
  Startup                   ....       0.015 sec  (  1.4% of F)
  Split-RI-J                ....       0.065 sec  (  6.2% of F)
  Chain of spheres X        ....       0.685 sec  ( 65.6% of F)
  XC integration            ....       0.253 sec  ( 24.2% of F)
    Basis function eval.    ....       0.077 sec  ( 30.4% of XC)
    Density eval.           ....       0.038 sec  ( 15.0% of XC)
    XC-Functional eval.     ....       0.017 sec  (  6.7% of XC)
    XC-Potential eval.      ....       0.079 sec  ( 31.2% of XC)
Diagonalization             ....       0.000 sec  (  0.0%)
Density matrix formation    ....       0.175 sec  ( 10.9%)
Total Energy calculation    ....       0.066 sec  (  4.1%)
Population analysis         ....       0.016 sec  (  1.0%)
Orbital Transformation      ....       0.019 sec  (  1.2%)
Orbital Orthonormalization  ....       0.000 sec  (  0.0%)
DIIS solution               ....       0.144 sec  (  8.9%)
SOSCF solution              ....       0.077 sec  (  4.8%)
Finished LeanSCF after   1.6 sec

Maximum memory used throughout the entire LEANSCF-calculation: 6.2 MB

------------------------------------------------------------------------------
                         ORCA PROPERTY INTEGRAL CALCULATIONS
------------------------------------------------------------------------------

GBWName                                   ... HCl_TDDFT-B3LYP.gbw
Number of atoms                           ...      2
Number of basis functions                 ...     56
Max core memory                           ...   4000 MB

Dipole integrals                          ... YES
Quadrupole integrals                      ...  NO
Linear momentum integrals                 ... YES
Angular momentum integrals                ... YES
Higher moments length integrals           ...  NO
Higher moments velocity integrals         ...  NO
Kinetic energy integrals                  ...  NO
GIAO right hand sides                     ...  NO
GIAO dipole derivative integrals          ...  NO
SOC integrals                             ...  NO
EPR diamagnetic integrals (GIAO)          ...  NO
EPR gauge integrals                       ...  NO
Field gradient integrals                  ...  NO (   0 nuclei)
Spin-dipole/Fermi contact integrals       ...  NO (   0 nuclei)
Contact density integrals                 ...  NO (   0 nuclei)
Nucleus-orbit integrals                   ...  NO (   0 nuclei)
Geometric perturbations                   ...  NO (   2 nuclei)

Choice of electric origin   ... Center of mass
Position of electric origin ... (  0.0000,  0.0000,  0.0731) 
Choice of magnetic origin   ... GIAO
Position of magnetic origin ... (  0.0000,  0.0000,  0.0000) 

Calculating integrals                     ... Electric Dipole (Length)     done (  0.0 sec)
Calculating integrals                     ... Linear Momentum              done (  0.0 sec)
Calculating integrals                     ... Angular Momentum  (ElOri)    done (  0.0 sec)

Property integrals calculated in   0.0 sec

Maximum memory used throughout the entire PROPINT-calculation: 7.4 MB
------------------------------------------------------------------------------
                        ORCA TD-DFT/TDA CALCULATION
------------------------------------------------------------------------------

Input orbitals are from        ... HCl_TDDFT-B3LYP.gbw
CI-vector output               ... HCl_TDDFT-B3LYP.cis
Solver                         ... FN-2001
Tamm-Dancoff approximation     ... operative
CIS-Integral strategy          ... AO-integrals
Integral handling              ... AO integral Direct
Max. core memory used          ... 4000 MB
Reference state                ... RHF
Generation of triplets         ... off
Follow IRoot                   ... off
Number of operators            ... 1
Orbital ranges used for CIS calculation:
 Operator 0:  Orbitals   5...  8  to   9... 55
XAS localization array:
 Operator 0:  Orbitals  -1... -1

-------------------
XC-INTEGRATION GRID
-------------------

General Integration Accuracy     IntAcc      ... 3.467
Radial Grid Type                 RadialGrid  ... OptM3 with GC (2021)
Angular Grid (max. ang.)         AngularGrid ... 1 (Lebedev-50)
Angular grid pruning method      GridPruning ... 4 (adaptive)
Weight generation scheme         WeightScheme... mBecke (2022)
Basis function cutoff            BFCut       ... 1.0000e-12
Integration weight cutoff        WCut        ... 1.0000e-14
Partially contracted basis set               ... off
Rotationally invariant grid construction     ... off
Angular grids for H and He will be reduced by one unit

Total number of grid points                  ...     2385
Total number of batches                      ...       38
Average number of points per batch           ...       62
Average number of grid points per atom       ...     1193

---------------------
COSX-INTEGRATION GRID
---------------------

General Integration Accuracy     IntAcc      ... 3.067
Radial Grid Type                 RadialGrid  ... OptM3 with GC (2021)
Angular Grid (max. ang.)         AngularGrid ... 1 (Lebedev-50)
Angular grid pruning method      GridPruning ... 4 (adaptive)
Weight generation scheme         WeightScheme... mBecke (2022)
Basis function cutoff            BFCut       ... 1.0000e-12
Integration weight cutoff        WCut        ... 1.0000e-14
Partially contracted basis set               ... on
Rotationally invariant grid construction     ... off
Angular grids for H and He will be reduced by one unit

Total number of grid points                  ...     1493
Total number of batches                      ...       13
Average number of points per batch           ...      114
Average number of grid points per atom       ...      747

---------------
TD-DFT XC SETUP
---------------

DFT calculation                         ... on
Name of the grid file                   ... HCl_TDDFT-B3LYP.grid_cis.tmp
RI-approximation                        ... on
Aux-basis dimension                     ... 0
Exchange functional (TD-DFT)            ... B88
   X-Alpha parameter    XAlpha (TD-DFT) ...  0.666667
   Becke's b parameter  XBeta (TD-DFT)  ...  0.004200
Correlation functional (TD-DFT)         ... LYP
 LDA part of GGA corr.  LDAOpt (TD-DFT) ... VWN-5
Hybrid DFT                              ... on
   Exchange mixing (TD-DFT)             ...  0.200
   GGA exch. scaling (TD-DFT)           ...  0.720
   GGA corr. scaling (TD-DFT)           ...  0.810

Building densities             ... done
Calculating rho(r) on the grid ... done
Building xc-kernel on the grid ... done
                    *** TD-DFT CALCULATION INITIALIZED ***

------------------------
DAVIDSON-DIAGONALIZATION
------------------------

Dimension of the eigenvalue problem            ...    188
Number of roots to be determined               ...     10
Maximum size of the expansion space            ...    100
Maximum number of iterations                   ...    100
Convergence tolerance for the residual         ...    1.000e-07
Convergence tolerance for the energies         ...    1.000e-07
Orthogonality tolerance                        ...    1.000e-14
Level Shift                                    ...    0.000e+00
Constructing the preconditioner                ... o.k.
Building the initial guess                     ... o.k.
Number of trial vectors determined             ...    100


                       ****Iteration    0****
   Time for iteration     :  TOTAL=0.6 TRAFO=0.3 RIJ=0.0 COSX=0.1 XC=0.1
   Size of expansion space: 30
   Lowest Energy          :     0.282180427887
   Maximum Energy change  :     0.606462026656 (vector 9)
   Maximum residual norm  :     0.001737579977

                       ****Iteration    1****
   Time for iteration     :  TOTAL=0.2 TRAFO=0.1 RIJ=0.0 COSX=0.1 XC=0.0
   Size of expansion space: 40
   Lowest Energy          :     0.281415297300
   Maximum Energy change  :     0.001172821855 (vector 2)
   Maximum residual norm  :     0.000005824282

                       ****Iteration    2****
   Time for iteration     :  TOTAL=0.2 TRAFO=0.1 RIJ=0.0 COSX=0.1 XC=0.0
   Size of expansion space: 50
   Lowest Energy          :     0.281414585617
   Maximum Energy change  :     0.000003085722 (vector 2)
   Maximum residual norm  :     0.000000011925

      *** CONVERGENCE OF RESIDUAL NORM REACHED ***

Storing the converged CI vectors               ... HCl_TDDFT-B3LYP.cis1

                 *** DAVIDSON DONE ***

Total time for solving the CIS problem:     3.982sec

------------------------------------
TD-DFT/TDA EXCITED STATES (SINGLETS)
------------------------------------

the weight of the individual excitations are printed if larger than 1.0e-02

STATE  1:  E=   0.281415 au      7.658 eV    61763.4 cm**-1 <S**2> =   0.000000 Mult 1
     7a ->   9a  :     0.137796 (c= -0.37120875)
     8a ->   9a  :     0.857105 (c=  0.92579946)

STATE  2:  E=   0.281415 au      7.658 eV    61763.4 cm**-1 <S**2> =   0.000000 Mult 1
     7a ->   9a  :     0.857105 (c=  0.92579946)
     8a ->   9a  :     0.137796 (c=  0.37120875)

STATE  3:  E=   0.456522 au     12.423 eV   100195.0 cm**-1 <S**2> =   0.000000 Mult 1
     6a ->   9a  :     0.920228 (c= -0.95928494)
     6a ->  10a  :     0.019952 (c=  0.14125144)
     7a ->  13a  :     0.014195 (c=  0.11914482)
     7a ->  14a  :     0.012964 (c= -0.11385738)
     8a ->  12a  :     0.014195 (c= -0.11914483)
     8a ->  15a  :     0.012964 (c=  0.11385737)

STATE  4:  E=   0.458875 au     12.487 eV   100711.5 cm**-1 <S**2> =   0.000000 Mult 1
     7a ->  10a  :     0.177007 (c=  0.42072165)
     8a ->  10a  :     0.801612 (c= -0.89532768)

STATE  5:  E=   0.458875 au     12.487 eV   100711.5 cm**-1 <S**2> =   0.000000 Mult 1
     7a ->  10a  :     0.801612 (c= -0.89532768)
     8a ->  10a  :     0.177007 (c= -0.42072165)

STATE  6:  E=   0.600678 au     16.345 eV   131833.5 cm**-1 <S**2> =   0.000000 Mult 1
     7a ->  12a  :     0.121724 (c= -0.34888956)
     7a ->  14a  :     0.018128 (c=  0.13463844)
     7a ->  15a  :     0.359242 (c=  0.59936762)
     8a ->  13a  :     0.121724 (c= -0.34888969)
     8a ->  14a  :     0.359242 (c=  0.59936792)
     8a ->  15a  :     0.018128 (c= -0.13463880)

STATE  7:  E=   0.604922 au     16.461 eV   132765.0 cm**-1 <S**2> =   0.000000 Mult 1
     7a ->  12a  :     0.034324 (c=  0.18526612)
     7a ->  13a  :     0.048715 (c=  0.22071446)
     7a ->  14a  :     0.301982 (c= -0.54952851)
     7a ->  15a  :     0.114605 (c= -0.33853397)
     8a ->  12a  :     0.048715 (c=  0.22071443)
     8a ->  13a  :     0.034323 (c= -0.18526580)
     8a ->  14a  :     0.114605 (c=  0.33853361)
     8a ->  15a  :     0.301981 (c= -0.54952831)

STATE  8:  E=   0.605078 au     16.465 eV   132799.3 cm**-1 <S**2> =   0.000000 Mult 1
     7a ->  12a  :     0.048344 (c=  0.21987256)
     7a ->  13a  :     0.034062 (c= -0.18455924)
     7a ->  14a  :     0.114777 (c=  0.33878775)
     7a ->  15a  :     0.302435 (c= -0.54994101)
     8a ->  12a  :     0.034062 (c= -0.18455929)
     8a ->  13a  :     0.048344 (c= -0.21987250)
     8a ->  14a  :     0.302435 (c=  0.54994108)
     8a ->  15a  :     0.114777 (c=  0.33878823)

STATE  9:  E=   0.606103 au     16.493 eV   133024.2 cm**-1 <S**2> =   0.000000 Mult 1
     7a ->  11a  :     0.133035 (c=  0.36473962)
     8a ->  11a  :     0.865108 (c= -0.93011194)

STATE 10:  E=   0.606103 au     16.493 eV   133024.2 cm**-1 <S**2> =   0.000000 Mult 1
     7a ->  11a  :     0.865108 (c= -0.93011194)
     8a ->  11a  :     0.133035 (c= -0.36473962)


-----------------------------
TD-DFT/TDA-EXCITATION SPECTRA
-----------------------------

Center of mass = (  0.0000,  0.0000,  0.0731)
Generating CIS transition densities           ... done

----------------------------------------------------------------------------------------------------
                     ABSORPTION SPECTRUM VIA TRANSITION ELECTRIC DIPOLE MOMENTS    
----------------------------------------------------------------------------------------------------
     Transition      Energy     Energy  Wavelength fosc(D2)      D2        DX        DY        DZ   
                      (eV)      (cm-1)    (nm)                 (au**2)    (au)      (au)      (au)  
----------------------------------------------------------------------------------------------------
  0-1A  ->  1-1A    7.657680   61763.4   161.9   0.011331126   0.06040   0.24572  -0.00430   0.00000
  0-1A  ->  2-1A    7.657680   61763.4   161.9   0.011331126   0.06040  -0.00430  -0.24572   0.00000
  0-1A  ->  3-1A   12.422593  100195.0    99.8   0.466081288   1.53141   0.00000  -0.00000   1.23750
  0-1A  ->  4-1A   12.486628  100711.5    99.3   0.087418669   0.28576   0.53413   0.02161  -0.00000
  0-1A  ->  5-1A   12.486628  100711.5    99.3   0.087418669   0.28576   0.02161  -0.53413  -0.00000
  0-1A  ->  6-1A   16.345269  131833.5    75.9   0.000000000   0.00000  -0.00000  -0.00000   0.00000
  0-1A  ->  7-1A   16.460759  132765.0    75.3   0.000000000   0.00000  -0.00000  -0.00000  -0.00000
  0-1A  ->  8-1A   16.465015  132799.3    75.3   0.000000000   0.00000  -0.00000   0.00000  -0.00000
  0-1A  ->  9-1A   16.492900  133024.2    75.2   0.045358970   0.11226   0.33494  -0.00842  -0.00000
  0-1A  -> 10-1A   16.492901  133024.2    75.2   0.045358971   0.11226  -0.00842  -0.33494  -0.00000

----------------------------------------------------------------------------------------------------
                     ABSORPTION SPECTRUM VIA TRANSITION VELOCITY DIPOLE MOMENTS    
----------------------------------------------------------------------------------------------------
     Transition      Energy     Energy  Wavelength fosc(P2)      P2        PX        PY        PZ   
                      (eV)      (cm-1)    (nm)                 (au**2)    (au)      (au)      (au)  
----------------------------------------------------------------------------------------------------
  0-1A  ->  1-1A    7.657680   61763.4   161.9   0.033129425   0.01398  -0.11824   0.00207  -0.00000
  0-1A  ->  2-1A    7.657680   61763.4   161.9   0.033129425   0.01398   0.00207   0.11824  -0.00000
  0-1A  ->  3-1A   12.422593  100195.0    99.8   0.289665781   0.19836  -0.00000   0.00000  -0.44537
  0-1A  ->  4-1A   12.486628  100711.5    99.3   0.039837216   0.02742  -0.16546  -0.00669   0.00000
  0-1A  ->  5-1A   12.486628  100711.5    99.3   0.039837215   0.02742  -0.00669   0.16546   0.00000
  0-1A  ->  6-1A   16.345269  131833.5    75.9   0.000000000   0.00000   0.00000   0.00000  -0.00000
  0-1A  ->  7-1A   16.460759  132765.0    75.3   0.000000000   0.00000   0.00000   0.00000   0.00000
  0-1A  ->  8-1A   16.465015  132799.3    75.3   0.000000000   0.00000   0.00000  -0.00000   0.00000
  0-1A  ->  9-1A   16.492900  133024.2    75.2   0.020088039   0.01826  -0.13510   0.00340   0.00000
  0-1A  -> 10-1A   16.492901  133024.2    75.2   0.020088039   0.01826   0.00340   0.13510   0.00000

------------------------------------------------------------------------------------------
                     CD SPECTRUM VIA TRANSITION ELECTRIC DIPOLE MOMENTS    
------------------------------------------------------------------------------------------
     Transition      Energy     Energy  Wavelength    R        MX        MY        MZ   
                      (eV)      (cm-1)    (nm)   (1e40*cgs)   (au)      (au)      (au)  
------------------------------------------------------------------------------------------
  0-1A  ->  1-1A    7.657680   61763.4   161.9    0.00000   0.00296   0.16898  -0.00000
  0-1A  ->  2-1A    7.657680   61763.4   161.9   -0.00000   0.16898  -0.00296  -0.00000
  0-1A  ->  3-1A   12.422593  100195.0    99.8   -0.00000  -0.00000  -0.00000   0.00000
  0-1A  ->  4-1A   12.486628  100711.5    99.3    0.00000   0.00556  -0.13753   0.00000
  0-1A  ->  5-1A   12.486628  100711.5    99.3   -0.00000  -0.13753  -0.00556   0.00000
  0-1A  ->  6-1A   16.345269  131833.5    75.9    0.00000   0.00000  -0.00000   0.00000
  0-1A  ->  7-1A   16.460759  132765.0    75.3    0.00000   0.00000   0.00000   0.00000
  0-1A  ->  8-1A   16.465015  132799.3    75.3    0.00000   0.00000  -0.00000   0.00000
  0-1A  ->  9-1A   16.492900  133024.2    75.2    0.00000  -0.00058  -0.02322   0.00000
  0-1A  -> 10-1A   16.492901  133024.2    75.2   -0.00000  -0.02322   0.00058   0.00000

------------------------------------------------------------------------------------------
                     CD SPECTRUM VIA TRANSITION VELOCITY DIPOLE MOMENTS    
------------------------------------------------------------------------------------------
     Transition      Energy     Energy  Wavelength    R        MX        MY        MZ   
                      (eV)      (cm-1)    (nm)   (1e40*cgs)   (au)      (au)      (au)  
------------------------------------------------------------------------------------------
  0-1A  ->  1-1A    7.657680   61763.4   161.9   -0.00000   0.00296   0.16898  -0.00000
  0-1A  ->  2-1A    7.657680   61763.4   161.9    0.00000   0.16898  -0.00296  -0.00000
  0-1A  ->  3-1A   12.422593  100195.0    99.8   -0.00000  -0.00000  -0.00000   0.00000
  0-1A  ->  4-1A   12.486628  100711.5    99.3    0.00000   0.00556  -0.13753   0.00000
  0-1A  ->  5-1A   12.486628  100711.5    99.3   -0.00000  -0.13753  -0.00556   0.00000
  0-1A  ->  6-1A   16.345269  131833.5    75.9    0.00000   0.00000  -0.00000   0.00000
  0-1A  ->  7-1A   16.460759  132765.0    75.3    0.00000   0.00000   0.00000   0.00000
  0-1A  ->  8-1A   16.465015  132799.3    75.3    0.00000   0.00000  -0.00000   0.00000
  0-1A  ->  9-1A   16.492900  133024.2    75.2    0.00000  -0.00058  -0.02322   0.00000
  0-1A  -> 10-1A   16.492901  133024.2    75.2   -0.00000  -0.02322   0.00058   0.00000

Total run time:        4.225 sec

           *** ORCA-CIS/TD-DFT FINISHED WITHOUT ERROR ***
-----------------------
CIS/TD-DFT TOTAL ENERGY
-----------------------

    E(SCF)  =   -460.767437155 Eh
    DE(CIS) =      0.281414586 Eh (Root  1)
    ----------------------------- ---------
    E(tot)  =   -460.486022569 Eh


------------------------
TD-DFT GRADIENT XC SETUP
------------------------

Building densities                     ... done
Calculating rho(r) on the grid         ... done
Building xc-kernel on the grid         ... done
Building xc 3rd derivative on the grid ... done
                *** TD-DFT GRADIENT CALCULATION INITIALIZED ***

--------------------------
TD-DFT/TDA RELAXED DENSITY
--------------------------

Reference wavefunction             ... RHF
State of interest                  ... 1
Basis dimension                    ... 56
DFT-XC contribution needed         ... YES
RI-approximation                   ... YES
Do Coulomb                         ... YES
Do Exchange                        ... YES
Need Hartree-Fock Exchange         ... YES
facj, facx                         ...  2.000, -0.200
Conventional                       ... NO
Range separation                   ... NO
Triplet state                      ... NO
Spin Flip                          ... NO
CIS-vectors being read from        ... HCl_TDDFT-B3LYP.cis
 => Number of Vectors found: 10
 => Orbital Window: 5...8 -> 9...55

Reading the CIS file                     ... done
Norm of the CI vector                    ... 1.000000000
Making the CIS (pseudo)densities         ... done
Making operators G(D) and Q(T)           ... (SHARK-ok)done
Transforming the Fock operators          ... done
Making the frozen-core relaxed density   ... done
Constructing the G(H) operator           ... (SHARK-ok)done
Transforming the G(H) operator           ... done
Calculating the CIS Lagrangian           ... done
Solving the Z-vector equations           ... 

Using XC Grid                  ... (HCl_TDDFT-B3LYP.grid_cpscf.tmp) 
Recalculating density on grid  ... (HCl_TDDFT-B3LYP.grho_cpscf0.tmp) done
Calculating the xc-kernel      ... (HCl_TDDFT-B3LYP.fxc_cpscf0.tmp) done

-------------------
SHARK CP-SCF DRIVER
-------------------

Dimension of the orbital basis          ...     56
Dimension of the CPSCF-problem          ...    423
Number of operators                     ...      1
Max. number of iterations               ...    128
Convergence Tolerance                   ... 3.0e-05
Number of perturbations                 ...      1
Perturbation type                       ... REAL

----------------------------
POPLE LINEAR EQUATION SOLVER
----------------------------

  ITERATION   0:   ||err||_max =   7.3056e-01 (   0.1 sec)
  ITERATION   1:   ||err||_max =   1.8824e-02 (   0.1 sec)
  ITERATION   2:   ||err||_max =   3.6198e-03 (   0.1 sec)
  ITERATION   3:   ||err||_max =   3.3515e-04 (   0.1 sec)
  ITERATION   4:   ||err||_max =   3.0990e-05 (   0.1 sec)
  ITERATION   5:   ||err||_max =   2.6882e-06 (   0.1 sec)

Finalizing the relaxed density           ... done
Storing the relaxed density              ... done
Constructing the G(Z) operator           ... (SHARK-ok)done
Adding the XC terms                      ... done
Transforming the G(Z) operator           ... done
Making the W-matrix                      ... done
Finalizing the W-matrix                  ... done
Transforming the W-matrix                ... done
Nuc. rep. gradient        (SHARK) ... done (  0.0 sec)
HCore & Overlap gradient  (SHARK) ... done (  0.0 sec)
Split-RIJ-J gradient      (SHARK) ... done (  0.1 sec)
COSX-gradient                     ... done (  0.7 sec)

                 ---------------------------
                 EXCITED STATE GRADIENT DONE
                 ---------------------------

------------------
CARTESIAN GRADIENT
------------------

   1   Cl  :    0.000000036   -0.000000004   -0.157975098
   2   H   :   -0.000000036    0.000000004    0.158221438

Difference to translation invariance:
           :    0.0000000006   -0.0000000003    0.0002463394

Difference to rotation invariance:
           :    0.0000000099    0.0000000869    0.0000000000

Norm of the Cartesian gradient     ...    0.2235847829
RMS gradient                       ...    0.0912781054
MAX gradient                       ...    0.1582214379

------------------------------------------------------------------------------
                  RELAXED CIS/TDA DENSITY POPULATION ANALYSIS
                                   IROOT 1
------------------------------------------------------------------------------
------------------------------------------------------------------------------
                           ORCA POPULATION ANALYSIS
------------------------------------------------------------------------------
Input electron density              ... HCl_TDDFT-B3LYP.cispre.singlet.iroot1
BaseName (.gbw .S,...)              ... HCl_TDDFT-B3LYP

                    ********************************
                    * MULLIKEN POPULATION ANALYSIS *
                    ********************************

-----------------------
MULLIKEN ATOMIC CHARGES
-----------------------
   0 Cl:    0.460516
   1 H :   -0.460516
Sum of atomic charges:   -0.0000000

--------------------------------
MULLIKEN REDUCED ORBITAL CHARGES
--------------------------------
  0 Cls       :     5.899569  s :     5.899569
      pz      :     3.605591  p :    10.594985
      px      :     3.003003
      py      :     3.986391
      dz2     :     0.041499  d :     0.045138
      dxz     :    -0.000075
      dyz     :     0.000413
      dx2y2   :     0.001648
      dxy     :     0.001652
      f0      :    -0.000039  f :    -0.000208
      f+1     :    -0.000214
      f-1     :    -0.000009
      f+2     :     0.000027
      f-2     :     0.000027
      f+3     :     0.000000
      f-3     :    -0.000000
  1 H s       :     1.457284  s :     1.457284
      pz      :    -0.009331  p :     0.001281
      px      :     0.000394
      py      :     0.010218
      dz2     :     0.000402  d :     0.001951
      dxz     :     0.000544
      dyz     :     0.000999
      dx2y2   :     0.000003
      dxy     :     0.000003


                     *******************************
                     * LOEWDIN POPULATION ANALYSIS *
                     *******************************

----------------------
LOEWDIN ATOMIC CHARGES
----------------------
   0 Cl:    0.737781
   1 H :   -0.737781

-------------------------------
LOEWDIN REDUCED ORBITAL CHARGES
-------------------------------
  0 Cls       :     5.657742  s :     5.657742
      pz      :     3.558515  p :    10.454204
      px      :     2.971882
      py      :     3.923807
      dz2     :     0.139939  d :     0.143633
      dxz     :     0.000329
      dyz     :     0.000074
      dx2y2   :     0.001643
      dxy     :     0.001647
      f0      :     0.005918  f :     0.006640
      f+1     :     0.000374
      f-1     :     0.000297
      f+2     :     0.000026
      f-2     :     0.000026
      f+3     :     0.000000
      f-3     :    -0.000000
  1 H s       :     1.228171  s :     1.228171
      pz      :     0.376763  p :     0.461291
      px      :     0.024278
      py      :     0.060250
      dz2     :     0.027926  d :     0.048319
      dxz     :     0.006790
      dyz     :     0.013585
      dx2y2   :     0.000009
      dxy     :     0.000009


                      *****************************
                      * MAYER POPULATION ANALYSIS *
                      *****************************

  NA   - Mulliken gross atomic population
  ZA   - Total nuclear charge
  QA   - Mulliken gross atomic charge
  VA   - Mayer's total valence
  BVA  - Mayer's bonded valence
  FA   - Mayer's free valence

  ATOM       NA         ZA         QA         VA         BVA        FA
  0 Cl    16.5395    17.0000     0.4605     1.0345     0.1399     0.8946
  1 H      1.4605     1.0000    -0.4605     1.1730     0.1399     1.0330

  Mayer bond orders larger than 0.100000
B(  0-Cl,  1-H ) :   0.1399 


-------
TIMINGS
-------

Total TD-DFT gradient time  ....        2.296 sec

Fock matrix formation       ....       0.433 sec  ( 18.9%)
  Coulomb formation         ....       0.319 sec  ( 73.7% of F)
  XC integration            ....       0.114 sec  ( 26.3% of F)
Z-vector equation           ....       0.760 sec  ( 33.1%)
One electron gradient       ....       0.005 sec  (  0.2%)
RI-J Coulomb gradient       ....       0.065 sec  (  2.8%)
COSX gradient               ....       0.170 sec  (  7.4%)
XC gradient                 ....       0.674 sec  ( 29.4%)

Maximum memory used throughout the entire CIS-calculation: 13.9 MB
=> NOW LEAVING ORCA_CIS

-------------------------   --------------------
FINAL SINGLE POINT ENERGY      -460.486022568947
-------------------------   --------------------

------------------------------------------------------------------------------
                         ORCA GEOMETRY RELAXATION STEP
------------------------------------------------------------------------------

Reading the OPT-File                    .... done
Getting information on internals        .... done
Copying old internal coords+grads       .... done
Making the new internal coordinates     .... (2022 redundants) done
Validating the new internal coordinates .... (2022 redundants) done
Calculating the B-matrix                .... done
Calculating the G,G- and P matrices     .... done
Transforming gradient to internals      .... done
Projecting the internal gradient        .... done
Number of atoms                         ....   2
Number of internal coordinates          ....   1
Current Energy                          ....  -460.486022569 Eh
Current gradient norm                   ....     0.223584783 Eh/bohr
Maximum allowed component of the step   ....  0.300
Current trust radius                    ....  0.300
Evaluating the initial hessian          ....  (Almloef) done
Projecting the Hessian                  .... done
Forming the augmented Hessian           .... done
Diagonalizing the augmented Hessian     .... done
Last element of RFO vector              ....  0.944364364
Lowest eigenvalues of augmented Hessian:
 -0.055062113
Length of the computed step             ....  0.348277777
Warning: the length of the step is outside the trust region - taking restricted step instead
The input lambda is                     ....     0.397881
   iter:   5  x=    0.391288  g=385319.918242 f(x)=   975.226778
   iter:  10  x=    0.341399  g=  883.625607 f(x)=    16.870694
   iter:  15  x=    0.029606  g=    2.547126 f(x)=     0.253530
   iter:  20  x=   -0.128113  g=    0.341560 f(x)=     0.000000
The output lambda is                    ....    -0.128113 (22 iterations)
The final length of the internal step   ....  0.300000000
Converting the step to Cartesian space:
 Initial RMS(Int)=    0.3000000000
Transforming coordinates:
 Iter   0:  RMS(Cart)=    0.0866025404 RMS(Int)=    0.3000000000
done
Storing new coordinates                 .... done

                                .--------------------.
          ----------------------|Geometry convergence|-------------------------
          Item                value                   Tolerance       Converged
          ---------------------------------------------------------------------
          RMS gradient        0.1580982682            0.0000100000      NO
          MAX gradient        0.1580982682            0.0001000000      NO
          RMS step            0.3000000000            0.0000100000      NO
          MAX step            0.3000000000            0.0001000000      NO
          ........................................................
          Max(Bonds)      0.1588      Max(Angles)    0.00
          Max(Dihed)        0.00      Max(Improp)    0.00
          ---------------------------------------------------------------------

The optimization has not yet converged - more geometry cycles are needed


    ---------------------------------------------------------------------------
                         Redundant Internal Coordinates
                            (Angstroem and degrees)

        Definition                    Value    dE/dq     Step     New-Value
    ----------------------------------------------------------------------------
     1. B(H   1,Cl  0)                1.2822 -0.158098  0.1588    1.4409   
    ----------------------------------------------------------------------------

Geometry step timings:
Preparation and reading OPT file:      0.000 s ( 0.000 %)
Internal coordinates            :      0.000 s ( 0.000 %)
B/P matrices and projection     :      0.000 s ( 0.000 %)
Hessian update/contruction      :      0.002 s (66.667 %)
Making the step                 :      0.000 s ( 0.000 %)
Converting the step to Cartesian:      0.000 s ( 0.000 %)
Storing new data                :      0.000 s ( 0.000 %)
Checking convergence            :      0.000 s ( 0.000 %)
Final printing                  :      0.001 s (33.333 %)
Total time                      :      0.003 s

Time for energy+gradient        :      8.669 s
Time for complete geometry iter :      8.726 s

         *************************************************************
         *                GEOMETRY OPTIMIZATION CYCLE   2            *
         *************************************************************
---------------------------------
CARTESIAN COORDINATES (ANGSTROEM)
---------------------------------
  Cl     0.000000    0.000000    0.153521
  H      0.000000    0.000000   -1.287391

----------------------------
CARTESIAN COORDINATES (A.U.)
----------------------------
  NO LB      ZA    FRAG     MASS         X           Y           Z
   0 Cl   17.0000    0    35.453    0.000000    0.000000    0.290112
   1 H     1.0000    0     1.008    0.000000    0.000000   -2.432816

--------------------------------
INTERNAL COORDINATES (ANGSTROEM)
--------------------------------
 Cl     0   0   0     0.000000000000     0.00000000     0.00000000
 H      1   0   0     1.440911162490     0.00000000     0.00000000

---------------------------
INTERNAL COORDINATES (A.U.)
---------------------------
 Cl     0   0   0     0.000000000000     0.00000000     0.00000000
 H      1   0   0     2.722927480416     0.00000000     0.00000000

------------------------------------------------------------------------------
                   ___                                                        
                  /   \      - P O W E R E D   B Y -                         
                 /     \                                                     
                 |  |  |   _    _      __       _____    __    __             
                 |  |  |  | |  | |    /  \     |  _  \  |  |  /  |          
                  \  \/   | |  | |   /    \    | | | |  |  | /  /          
                 / \  \   | |__| |  /  /\  \   | |_| |  |  |/  /          
                |  |  |   |  __  | /  /__\  \  |    /   |      \           
                |  |  |   | |  | | |   __   |  |    \   |  |\   \          
                \     /   | |  | | |  |  |  |  | |\  \  |  | \   \       
                 \___/    |_|  |_| |__|  |__|  |_| \__\ |__|  \__/        
                                                                              
                      - O R C A' S   B I G   F R I E N D -                    
                                      &                                       
                       - I N T E G R A L  F E E D E R -                       
                                                                              
 v1 FN, 2020, v2 2021, v3 2022-2024                                           
------------------------------------------------------------------------------


----------------------
SHARK INTEGRAL PACKAGE
----------------------

Number of atoms                             ...      2
Number of basis functions                   ...     56
Number of shells                            ...     20
Maximum angular momentum                    ...      3
Integral batch strategy                     ... SHARK/LIBINT Hybrid
RI-J (if used) integral strategy            ... SPLIT-RIJ (Revised 2003 algorithm where possible)
Printlevel                                  ...      1
Contraction scheme used                     ... SEGMENTED contraction
Prescreening option                         ... SCHWARTZ
   Thresh                                   ... 1.000e-12
   Tcut                                     ... 1.000e-14
   Tpresel                                  ... 1.000e-14 
Coulomb Range Separation                    ... NOT USED
Exchange Range Separation                   ... NOT USED
Multipole approximations                    ... NOT USED
Finite Nucleus Model                        ... NOT USED
CABS basis                                  ... NOT available
Auxiliary Coulomb fitting basis             ... AVAILABLE
   # of basis functions in Aux-J            ...     62
   # of shells in Aux-J                     ...     22
   Maximum angular momentum in Aux-J        ...      4
Auxiliary J/K fitting basis                 ... NOT available
Auxiliary Correlation fitting basis         ... NOT available
Auxiliary 'external' fitting basis          ... NOT available

Checking pre-screening integrals            ... done (  0.0 sec) Dimension = 20
Check shell pair data                       ... done (  0.0 sec)
Shell pair information
Shell pair cut-off parameter TPreSel        ...   1.0e-14
Total number of shell pairs                 ...       210
Shell pairs after pre-screening             ...       210
Total number of primitive shell pairs       ...       668
Primitive shell pairs kept                  ...       646
          la=0 lb=0:     36 shell pairs
          la=1 lb=0:     56 shell pairs
          la=1 lb=1:     28 shell pairs
          la=2 lb=0:     32 shell pairs
          la=2 lb=1:     28 shell pairs
          la=2 lb=2:     10 shell pairs
          la=3 lb=0:      8 shell pairs
          la=3 lb=1:      7 shell pairs
          la=3 lb=2:      4 shell pairs
          la=3 lb=3:      1 shell pairs

Calculating one electron integrals          ... done (  0.0 sec)
Calculating RI/J V-Matrix + Cholesky decomp.... done (  0.0 sec)
Calculating Nuclear repulsion               ... done (  0.0 sec) ENN=      6.243280484797 Eh

Diagonalization of the overlap matrix:
Smallest eigenvalue                        ... 7.726e-03
Time for diagonalization                   ...    0.001 sec
Threshold for overlap eigenvalues          ... 1.000e-07
Number of eigenvalues below threshold      ... 0
Time for construction of square roots      ...    0.001 sec
Total time needed                          ...    0.008 sec

-------------------
DFT GRID GENERATION
-------------------

General Integration Accuracy     IntAcc      ... 4.388
Radial Grid Type                 RadialGrid  ... OptM3 with GC (2021)
Angular Grid (max. ang.)         AngularGrid ... 4 (Lebedev-302)
Angular grid pruning method      GridPruning ... 4 (adaptive)
Weight generation scheme         WeightScheme... mBecke (2022)
Basis function cutoff            BFCut       ... 1.0000e-12
Integration weight cutoff        WCut        ... 1.0000e-14
Partially contracted basis set               ... off
Rotationally invariant grid construction     ... off
Angular grids for H and He will be reduced by one unit

Total number of grid points                  ...    10687
Total number of batches                      ...      168
Average number of points per batch           ...       63
Average number of grid points per atom       ...     5344

--------------------
COSX GRID GENERATION
--------------------

GRIDX 1
-------
General Integration Accuracy     IntAcc      ... 3.816
Radial Grid Type                 RadialGrid  ... OptM3 with GC (2021)
Angular Grid (max. ang.)         AngularGrid ... 1 (Lebedev-50)
[...]
      dx2y2   :     0.000000
      dxy     :     0.000000


                      *****************************
                      * MAYER POPULATION ANALYSIS *
                      *****************************

  NA   - Mulliken gross atomic population
  ZA   - Total nuclear charge
  QA   - Mulliken gross atomic charge
  VA   - Mayer's total valence
  BVA  - Mayer's bonded valence
  FA   - Mayer's free valence

  ATOM       NA         ZA         QA         VA         BVA        FA
  0 Cl    17.0118    17.0000    -0.0118     0.9254     0.1381     0.7874
  1 H      0.9882     1.0000     0.0118     1.0011     0.1381     0.8630

  Mayer bond orders larger than 0.100000
B(  0-Cl,  1-H ) :   0.1381 


-------
TIMINGS
-------

Total TD-DFT gradient time  ....        2.118 sec

Fock matrix formation       ....       0.397 sec  ( 18.7%)
  Coulomb formation         ....       0.296 sec  ( 74.6% of F)
  XC integration            ....       0.101 sec  ( 25.4% of F)
Z-vector equation           ....       0.779 sec  ( 36.8%)
One electron gradient       ....       0.003 sec  (  0.1%)
RI-J Coulomb gradient       ....       0.052 sec  (  2.5%)
COSX gradient               ....       0.172 sec  (  8.1%)
XC gradient                 ....       0.552 sec  ( 26.1%)

Maximum memory used throughout the entire CIS-calculation: 13.7 MB
=> NOW LEAVING ORCA_CIS

-------------------------   --------------------
FINAL SINGLE POINT ENERGY      -460.569280267411
-------------------------   --------------------

                                *** OPTIMIZATION RUN DONE ***


------------------------------------------------------------------------------
                              ORCA PROPERTY CALCULATIONS
------------------------------------------------------------------------------

GBWName                                 ... HCl_TDDFT-B3LYP.gbw
Number of atoms                         ...      2
Number of basis functions               ...     56
Max core memory                         ...   4000 MB

Electric properties:
Dipole moment                           ... YES
Quadrupole moment                       ...  NO
Static polarizability (Dipole/Dipole)   ...  NO
Static polarizability (Dipole/Quad.)    ...  NO
Static polarizability (Quad./Quad.)     ...  NO
Static polarizability (Velocity)        ...  NO

Atomic electric properties:
Dipole moment                           ...  NO
Quadrupole moment                       ...  NO
Static polarizability                   ...  NO

Choice of electric origin               ... Center of mass
Position of electric origin             ...     0.000000     0.000000     0.804984

General magnetic properties:
Magnetizability                         ...  NO

EPR properties:
g-Tensor (aka g-matrix)                 ...  NO
Zero-Field splitting spin-orbit         ...  NO
Zero-field splitting spin-spin          ...  NO
Hyperfine couplings                     ...  NO (   0 nuclei)
Quadrupole couplings                    ...  NO (   0 nuclei)
Contact density                         ...  NO (   0 nuclei)

NMR properties:
Chemical shifts                         ...  NO (   0 nuclei)
Spin-rotation constants                 ...  NO (   0 nuclei)
Spin-spin couplings                     ...  NO (   0 nuclei,    0 pairs)

Choice of magnetic origin               ... GIAO
Position of magnetic origin             ...     0.000000     0.000000     0.000000

Properties with geometric perturbations:
SCF Hessian                             ...  NO
IR spectrum                             ... YES
VCD spectrum                            ...  NO
X-ray spectroscopy properties:
SCF XES/XAS/RIXS spectra                ...  NO


-------------
DIPOLE MOMENT
-------------

Method             : SCF
Type of density    : Electron Density
Multiplicity       :   1
Irrep              :   0
Energy             :  -460.6524381321000874 Eh
Relativity type    : 
Basis              : AO
                                X                 Y                 Z
Electronic contribution:      0.000000002       0.000000001       1.259770518
Nuclear contribution   :      0.000000000       0.000000000      -1.995577681
                        -----------------------------------------
Total Dipole Moment    :      0.000000002       0.000000001      -0.735807163
                        -----------------------------------------
Magnitude (a.u.)       :      0.735807163
Magnitude (Debye)      :      1.870273175



--------------------
Rotational spectrum 
--------------------
 
Rotational constants in cm-1:             0.000000             3.892458             3.892458 
Rotational constants in MHz :             0.000000        116692.960624        116692.960624 

Dipole components along the rotational axes: 
x,y,z [a.u.] :    -0.735807     0.000000     0.000000 
x,y,z [Debye]:    -1.870273     0.000000     0.000000 

 

-------------
DIPOLE MOMENT
-------------

Method             : TDA/CIS
Type of density    : Electron Density
Level              : Relaxed density
State              :   1
Multiplicity       :   1
Irrep              :   0
Energy             :     0.0000000000000000 Eh
Relativity type    : 
Basis              : AO
                                X                 Y                 Z
Electronic contribution:      0.000000008       0.000000022       2.021147393
Nuclear contribution   :      0.000000000       0.000000000      -1.995577681
                        -----------------------------------------
Total Dipole Moment    :      0.000000008       0.000000022       0.025569712
                        -----------------------------------------
Magnitude (a.u.)       :      0.025569712
Magnitude (Debye)      :      0.064993043



--------------------
Rotational spectrum 
--------------------
 
Rotational constants in cm-1:             0.000000             3.892458             3.892458 
Rotational constants in MHz :             0.000000        116692.960624        116692.960624 

Dipole components along the rotational axes: 
x,y,z [a.u.] :     0.025570     0.000000     0.000000 
x,y,z [Debye]:     0.064993     0.000000     0.000000 

 

Dipole moment calculation done in   0.1 sec 

Maximum memory used throughout the entire PROP-calculation: 7.2 MB

----------------------------------------------------------------------------
                           ORCA NUMERICAL FREQUENCIES
----------------------------------------------------------------------------

Number of atoms                ... 2
Central differences            ... used
Number of displacements        ... 12
Numerical increment            ... 5.000e-03 bohr
IR-spectrum generation         ... on
Raman-spectrum generation      ... off
Surface Crossing Hessian       ... off

The output will be reduced. Please look at the following files:
SCF program output             ... >HCl_TDDFT-B3LYP.lastscf
Integral program output        ... >HCl_TDDFT-B3LYP.lastint
Gradient program output        ... >HCl_TDDFT-B3LYP.lastgrad
Dipole moment program output   ... >HCl_TDDFT-B3LYP.lastmom

	<< Calculating gradient on displaced geometry   1 (of  12) >>
	<< Calculating gradient on displaced geometry   2 (of  12) >>
	<< Calculating gradient on displaced geometry   3 (of  12) >>
	<< Calculating gradient on displaced geometry   4 (of  12) >>
	<< Calculating gradient on displaced geometry   5 (of  12) >>
	<< Calculating gradient on displaced geometry   6 (of  12) >>
	<< Calculating gradient on displaced geometry   7 (of  12) >>
	<< Calculating gradient on displaced geometry   8 (of  12) >>
	<< Calculating gradient on displaced geometry   9 (of  12) >>
	<< Calculating gradient on displaced geometry  10 (of  12) >>
	<< Calculating gradient on displaced geometry  11 (of  12) >>
	<< Calculating gradient on displaced geometry  12 (of  12) >>

-----------------------
VIBRATIONAL FREQUENCIES
-----------------------

Scaling factor for frequencies =  1.000000000  (already applied!)

     0:       0.00 cm**-1
     1:       0.00 cm**-1
     2:       0.00 cm**-1
     3:       0.00 cm**-1
     4:       0.00 cm**-1
     5:     875.58 cm**-1


------------
NORMAL MODES
------------

These modes are the Cartesian displacements weighted by the diagonal matrix
M(i,i)=1/sqrt(m[i]) where m[i] is the mass of the displaced atom
Thus, these vectors are normalized but *not* orthogonal

                  0          1          2          3          4          5    
      0       0.000000   0.000000   0.000000   0.000000   0.000000   0.000000
      1       0.000000   0.000000   0.000000   0.000000   0.000000   0.000000
      2       0.000000   0.000000   0.000000   0.000000   0.000000  -0.028421
      3       0.000000   0.000000   0.000000   0.000000   0.000000   0.000000
      4       0.000000   0.000000   0.000000   0.000000   0.000000   0.000000
      5       0.000000   0.000000   0.000000   0.000000   0.000000   0.999596


-----------
IR SPECTRUM
-----------

 Mode   freq       eps      Int      T**2         TX        TY        TZ
       cm**-1   L/(mol*cm) km/mol    a.u.
----------------------------------------------------------------------------
  5:    875.58   0.004550   22.99  0.001622  ( 0.000000  0.000000  0.040268)

* The epsilon (eps) is given for a Dirac delta lineshape.
** The dipole moment derivative (T) already includes vibrational overlap.

The first frequency considered to be a vibration is 5
The total number of vibrations considered is 1


--------------------------
THERMOCHEMISTRY AT 298.15K
--------------------------

Temperature         ...   298.15 K
Pressure            ...     1.00 atm
Total Mass          ...    36.46 AMU
Quasi RRHO          ...     True
Cut-Off Frequency   ...     1.00 cm^-1
The molecule is recognized as being linear

Throughout the following assumptions are being made:
  (1) The electronic state is orbitally nondegenerate
  (2) There are no thermally accessible electronically excited states
  (3) Hindered rotations indicated by low frequency modes are not
      treated as such but are treated as vibrations and this may
      cause some error
  (4) All equations used are the standard statistical mechanics
      equations for an ideal gas
  (5) All vibrations are strictly harmonic

freq.     875.58  E(vib)   ...       0.04 

------------
INNER ENERGY
------------

The inner energy is: U= E(el) + E(ZPE) + E(vib) + E(rot) + E(trans)
    E(el)   - is the total energy from the electronic structure calculation
              = E(kin-el) + E(nuc-el) + E(el-el) + E(nuc-nuc)
    E(ZPE)  - the the zero temperature vibrational energy from the frequency calculation
    E(vib)  - the the finite temperature correction to E(ZPE) due to population
              of excited vibrational states
    E(rot)  - is the rotational thermal energy
    E(trans)- is the translational thermal energy

Summary of contributions to the inner energy U:
Electronic energy                ...   -460.56928037 Eh
Zero point energy                ...      0.00199471 Eh       1.25 kcal/mol
Thermal vibrational correction   ...      0.00005920 Eh       0.04 kcal/mol
Thermal rotational correction    ...      0.00094418 Eh       0.59 kcal/mol
Thermal translational correction ...      0.00141627 Eh       0.89 kcal/mol
-----------------------------------------------------------------------
Total thermal energy                   -460.56486600 Eh


Summary of corrections to the electronic energy:
(perhaps to be used in another calculation)
Total thermal correction                  0.00241966 Eh       1.52 kcal/mol
Non-thermal (ZPE) correction              0.00199471 Eh       1.25 kcal/mol
-----------------------------------------------------------------------
Total correction                          0.00441437 Eh       2.77 kcal/mol


--------
ENTHALPY
--------

The enthalpy is H = U + kB*T
                kB is Boltzmann's constant
Total thermal energy              ...   -460.56486600 Eh 
Thermal Enthalpy correction       ...      0.00094421 Eh       0.59 kcal/mol
-----------------------------------------------------------------------
Total Enthalpy                    ...   -460.56392179 Eh


Note: Rotational entropy computed according to Herzberg 
Infrared and Raman Spectra, Chapter V,1, Van Nostrand Reinhold, 1945 
Point Group:  C(inf)v, Symmetry Number:   1  
Rotational constants in cm-1:     0.000000     3.892458     3.892458 

Vibrational entropy computed according to the QRRHO of S. Grimme
Chem.Eur.J. 2012 18 9955 using a reference frequency of 100.0 cm-1


-------
ENTROPY
-------

The entropy contributions are T*S = T*(S(el)+S(vib)+S(rot)+S(trans))
     S(el)   - electronic entropy
     S(vib)  - vibrational entropy
     S(rot)  - rotational entropy
     S(trans)- translational entropy
The entropies will be listed as multiplied by the temperature to get
units of energy

Electronic entropy                ...      0.00000000 Eh      0.00 kcal/mol
Vibrational entropy               ...      0.00007315 Eh      0.05 kcal/mol
Rotational entropy                ...      0.00469708 Eh      2.95 kcal/mol
Translational entropy             ...      0.01744233 Eh     10.95 kcal/mol
-----------------------------------------------------------------------
Final entropy term                ...      0.02221256 Eh     13.94 kcal/mol


-------------------
GIBBS FREE ENERGY
-------------------

The Gibbs free energy is G = H - T*S

Total enthalpy                    ...   -460.56392179 Eh 
Total entropy correction          ...     -0.02221256 Eh    -13.94 kcal/mol
-----------------------------------------------------------------------
Final Gibbs free energy         ...   -460.58613435 Eh

For completeness - the Gibbs free energy minus the electronic energy
G-E(el)                           ...     -0.01685399 Eh    -10.58 kcal/mol



--------------------------------
SUGGESTED CITATIONS FOR THIS RUN
--------------------------------

Below you find a list of papers that are relevant to this ORCA run
We neither can nor want to force you to cite these papers, but we appreciate if you do
You receive ORCA, which is the product of decades of hard work by many enthusiastic individuals, for free
The only thing we kindly ask in return is that you cite our papers,
We deeply appreciate it, if you show your appreciation for ORCA by not just citing the generic ORCA reference.

Please note that relegating all ORCA citations to the supporting information does *not* help us.
SI sections are not indexed - citations you put there will not count into any citation statistics
But we need these citations in order to attract the funding resources that allow us to do what we are doing

Therefore, if you are a happy ORCA user, please consider citing a few of the papers listed below in the main body of your paper

In addition to the list printed below, the program has created the file HCl_TDDFT-B3LYP.bibtex that contains the list in bibtex format
You can import this file easily into all common literature databanks and citation aid programs


List of essential papers. We consider these as the minimum necessary citations

  1. Neese,F.
     Software update: the ORCA program system, version 5.0
     WIRES Comput. Molec. Sci., 2022 12(1)e1606
     doi.org/10.1002/wcms.1606

List of papers to cite with high priority. The work reported in these papers was absolutely
necessary for this run to complete.
Our perspective: the developers of density functionals and basis sets usually get cited in chemistry papers
Good! But without the algorithms to do something with them, the functionals or basis sets would not do anything.
Hence, in our opinion, the algorithm design and method developments papers are equally worthy of getting cited

  1. Neese,F.; Olbrich,G.
     Efficient use of the resolution of the identity approximation in time-dependent density functional calculations with hybrid density functionals
     Chem. Phys. Lett., 2002 362 170-178
     doi.org/10.1016/s0009-2614(02)01053-9
  2. Neese,F.
     An improvement of the resolution of the identity approximation for the formation of the Coulomb matrix
     J. Comp. Chem., 2003 24(14)1740-1747
     doi.org/10.1002/jcc.10318
  3. Neese,F.; Wennmohs,F.; Hansen,A.; Becker,U.
     Efficient, approximate and parallel Hartree-Fock and hybrid DFT calculations. A 'chain-of-spheres' algorithm for the Hartree-Fock exchange
     Chem. Phys., 2009 356(1-3)98-109
     doi.org/10.1016/j.chemphys.2008.10.036
  4. Petrenko,T.; Kossmann,S.; Neese,F.
     Efficient time-dependent density functional theory approximations for hybrid density functionals: Analytical gradients and parallelization
     J. Chem. Phys., 2011 134 054116
     doi.org/10.1063/1.3533441
  5. Bykov,D.; Petrenko,T.; Izsak,R.; Kossmann,S.; Becker,U.; Valeev,E.; Neese,F.
     Efficient implementation of the analytic second derivatives of Hartree-Fock and hybrid DFT energies: a detailed analysis of different approximations
     Molec. Phys., 2015 113 1961-1977
     doi.org/10.1080/00268976.2015.1025114
  6. Helmich-Paris,B.; de Souza,B.; Neese,F.; Izsák,R.
     An improved chain of spheres for exchange algorithm
     J. Chem. Phys., 2021 155 104109
     doi.org/doi: 10.1063/5.0058766.
  7. Neese,F.
     The SHARK Integral Generation and Digestion System
     J. Comp. Chem., 2022  1-16
     doi.org/10.1002/jcc.26942

List of suggested additional citations. These are papers that are important in the 'surrounding' of 
of this run, or papers that preceded the highly important papers. If you like your results we are grateful for a citation.

  1. Izsak,R.; Neese,F.
     An overlap fitted chain of spheres exchange method
     J. Chem. Phys., 2011 135 144105
     doi.org/10.1063/1.3646921
  2. Izsak,R.; Hansen,A.; Neese,F.
     The resolution of identity and chain of spheres approximations for the LPNO-CCSD singles Fock term
     Molec. Phys., 2012 110 2413-2417
     doi.org/10.1080/00268976.2012.687466
  3. Neese,F.
     The ORCA program system
     WIRES Comput. Molec. Sci., 2012 2(1)73-78
     doi.org/10.1002/wcms.81
  4. Izsak,R.; Neese,F.; Klopper,W.
     Robust fitting techniques in the chain of spheres approximation to the Fock exchange: The role of the complementary space
     J. Chem. Phys., 2013 139 
     doi.org/10.1063/1.4819264
  5. Neese,F.
     Software update: the ORCA program system, version 4.0
     WIRES Comput. Molec. Sci., 2018 8(1)1-6
     doi.org/10.1002/wcms.1327
  6. Neese,F.; Wennmohs,F.; Becker,U.; Riplinger,C.
     The ORCA quantum chemistry program package
     J. Chem. Phys., 2020 152 Art. No. L224108
     doi.org/10.1063/5.0004608

List of optional additional citations

  1. Neese,F.
     Approximate second-order SCF convergence for spin unrestricted wavefunctions
     Chem. Phys. Lett., 2000 325(1-3)93-98
     doi.org/10.1016/s0009-2614(00)00662-x

Timings for individual modules:

Sum of individual times          ...      205.492 sec (=   3.425 min)
Startup calculation              ...        2.050 sec (=   0.034 min)   1.0 %
SCF iterations                   ...       17.171 sec (=   0.286 min)   8.4 %
Property integrals               ...        0.928 sec (=   0.015 min)   0.5 %
Property calculations            ...        0.103 sec (=   0.002 min)   0.1 %
CIS module                       ...       79.672 sec (=   1.328 min)  38.8 %
Geometry relaxation              ...        0.099 sec (=   0.002 min)   0.0 %
Numerical frequency calculation  ...      105.469 sec (=   1.758 min)  51.3 %
                             ****ORCA TERMINATED NORMALLY****
TOTAL RUN TIME: 0 days 0 hours 3 minutes 18 seconds 608 msec
