
                                 *****************
                                 * O   R   C   A *
                                 *****************

                                            #,                                       
                                            ###                                      
                                            ####                                     
                                            #####                                    
                                            ######                                   
                                           ########,                                 
                                     ,,################,,,,,                         
                               ,,#################################,,                 
                          ,,##########################################,,             
                       ,#########################################, ''#####,          
                    ,#############################################,,   '####,        
                  ,##################################################,,,,####,       
                ,###########''''           ''''###############################       
              ,#####''   ,,,,##########,,,,          '''####'''          '####       
            ,##' ,,,,###########################,,,                        '##       
           ' ,,###''''                  '''############,,,                           
         ,,##''                                '''############,,,,        ,,,,,,###''
      ,#''                                            '''#######################'''  
     '                                                          ''''####''''         
             ,#######,   #######,   ,#######,      ##                                
            ,#'     '#,  ##    ##  ,#'     '#,    #''#        ,####,   ,####,        
            ##       ##  ##   ,#'  ##            #'  '#       #'       #'  '#        
            ##       ##  #######   ##           ,######,      #####,   #    #        
            '#,     ,#'  ##    ##  '#,     ,#' ,#      #,     #,   #   #,  ,#        
             '#######'   ##     ##  '#######'  #'      '#     '####' # '####'        



                #########################################################
                #                        -***-                          #
                #          Department of theory and spectroscopy        #
                #                                                       #
                #                      Frank Neese                      #
                #                                                       #
                #     Directorship, Architecture, Infrastructure        #
                #                    SHARK, DRIVERS                     #
                #        Core code/Algorithms in most modules           #
                #                                                       #
                #        Max Planck Institute fuer Kohlenforschung      #
                #                Kaiser Wilhelm Platz 1                 #
                #                 D-45470 Muelheim/Ruhr                 #
                #                      Germany                          #
                #                                                       #
                #                  All rights reserved                  #
                #                        -***-                          #
                #########################################################


                         Program Version 6.0.1  -  RELEASE   -


 With contributions from (in alphabetic order):
[Max-Planck-Institut fuer Kohlenforschung]                               
  Daniel Aravena         : Magnetic Suceptibility                        
  Michael Atanasov       : Ab Initio Ligand Field Theory (pilot matlab implementation)
  Alexander A. Auer      : GIAO ZORA, VPT2 properties, NMR spectrum      
  Ute Becker             : All parallelization in ORCA, NUMFREQ, NUMCALC 
  Giovanni Bistoni       : ED, misc. LED, open-shell LED, HFLD           
  Martin Brehm           : Molecular dynamics                            
  Dmytro Bykov           : pre 5.0 version of the SCF Hessian            
  Marcos Casanova-Páez   : Triplet and SCS-CIS(D). UHF-(DLPNO)-IP/EA/STEOM-CCSD. UHF-CVS-IP/STEOM-CCSD   
  Vijay G. Chilkuri      : MRCI spin determinant printing, contributions to CSF-ICE 
  Pauline Colinet        : FMM embedding                                 
  Dipayan Datta          : RHF DLPNO-CCSD density                        
  Achintya Kumar Dutta   : EOM-CC, STEOM-CC                              
  Nicolas Foglia         : Exact transition moments, OPA infrastructure, MCD improvements    
  Dmitry Ganyushin       : Spin-Orbit,Spin-Spin,Magnetic field MRCI      
  Miquel Garcia-Rates    : C-PCM and meta-GGA Hessian, CCSD/C-PCM, Gaussian charge scheme 
  Tiago L. C. Gouveia    : GS-ROHF, GS-ROCIS                             
  Yang Guo               : DLPNO-NEVPT2, F12-NEVPT2, CIM, IAO-localization        
  Andreas Hansen         : Spin unrestricted coupled pair/coupled cluster methods 
  Ingolf Harden          : AUTO-CI MPn and infrastructure                
  Benjamin Helmich-Paris : MC-RPA, TRAH-(SCF,CASSCF), AVAS, COSX integrals, SCF dyn. polar. 
  Lee Huntington         : MR-EOM, pCC                                   
  Robert Izsak           : Overlap fitted RIJCOSX, COSX-SCS-MP3, EOM     
  Riya Kayal             : Wick's Theorem for AUTO-CI, AUTO-CI UHF-CCSDT 
  Emily Kempfer          : AUTO-CI, RHF CISDT and CCSDT                  
  Christian Kollmar      : KDIIS, OOCD, Brueckner-CCSD(T), CCSD density, CASPT2, CASPT2-K, improved NEVPT2 
  Axel Koslowski         : Symmetry handling                             
  Simone Kossmann        : meta-GGA functionals, TD-DFT gradient, OOMP2, (MP2 Hessian; deprecated post 5.0) 
  Lucas Lang             : DCDCAS                                        
  Marvin Lechner         : AUTO-CI (C++ implementation), FIC-MRCC        
  Spencer Leger          : CASSCF response                               
  Dagmar Lenk            : GEPOL surface, SMD, ORCA-2-JSON               
  Dimitrios Liakos       : Extrapolation schemes; Compound Job, initial MDCI parallelization 
  Dimitrios Manganas     : Further ROCIS development; embedding schemes. LFT, Crystal Embedding 
  Dimitrios Pantazis     : SARC Basis sets                               
  Anastasios Papadopoulos: AUTO-CI, single reference methods and gradients 
  Taras Petrenko         : pre 6.0 DFT Hessian and TD-DFT gradient, (ASA, deprecated), ECA, 1-Electron XAS/XES, NRVS 
  Peter Pinski           : DLPNO-MP2, DLPNO-MP2 Gradient                 
  Christoph Reimann      : Effective Core Potentials                     
  Marius Retegan         : Local ZFS, SOC                                
  Christoph Riplinger    : Optimizer, TS searches, QM/MM, DLPNO-CCSD(T), (RO)-DLPNO pert. Triples 
  Michael Roemelt        : Original ROCIS implementation                 
  Masaaki Saitow         : Open-shell DLPNO-CCSD energy and density      
  Barbara Sandhoefer     : DKH picture change effects                    
  Kantharuban Sivalingam : CASSCF convergence/infrastructure, NEVPT2 and variants, FIC-MRCI 
  Bernardo de Souza      : ESD, SOC TD-DFT                               
  Georgi L. Stoychev     : AutoAux, RI-MP2 NMR, DLPNO-MP2 response, X2C  
  Van Anh Tran           : RI-MP2 g-tensors                              
  Willem Van den Heuvel  : Paramagnetic NMR                              
  Zikuan Wang            : NOTCH, Electric field optimization            
  Frank Wennmohs         : Technical directorship and infrastructure     
  Hang Xu                : AUTO-CI-Response properties                   
                                                                         
[FACCTs GmbH]                                                            
  Markus Bursch, Miquel Garcia-Rates, Christoph Riplinger, Bernardo de Souza, Georgi L. Stoychev 
                                                                 
  APM, Basis sets (HGBS, AHGBS, def-TZVP (Ac-Lr), def2-XVPD (La-Lu)), CI-OPT, improved COSX, DLPNO-Multilevel,           
  DOCKER, DRACO, updates on ESD, GOAT, IRC, LR-CPCM, MBIS, meta-GGA TD-DFT gradient, ML-optimized integration grids, 
  MM, NACMEs, nearIR, NEB, NEB-TS, NL-DFT gradient (VV10), 2- and 3-layer-ONIOM, interface openCOSMO-RS, QMMM,   
  Crystal-QMMM, SF, symmetry and pop. for TD-DFT, r2SCAN hybrids, SOLVATOR                                   
                                                                         
[Other institutions]                                                     
  V. Asgeirsson          : NEB                                           
  Christoph Bannwarth    : sTDA-DFT, sTD-DFT, PBEh-3c, B97-3c, D3        
  Sebastian Ehlert       : rSCAN, r2SCAN, r2SCAN-3c, D4, dhf basis sets  
  Marvin Friede          : D4 for Fr, Ra, Ac-Lr                          
  Lars Goerigk           : TD-DFT with DH, B97 family of functionals     
  Stefan Grimme          : VdW corrections, initial TS optimization, DFT functionals, gCP, sTDA/sTD-DF 
  Waldemar Hujo          : DFT-NL                                        
  H. Jonsson             : NEB                                           
  Holger Kruse           : gCP                                           
  Marcel Mueller         : wB97X-3c, vDZP basis set                      
  Hagen Neugebauer       : wr2SCAN                                       
  Tobias Risthaus        : range-separated hybrid DFT                    
  Lukas Wittmann         : regularized MP2, r2SCAN double-hybrids, wr2SCAN        
                                                                         
We gratefully acknowledge several colleagues who have allowed us to      
interface, adapt or use parts of their codes:                            
  Ed Valeev, F. Pavosevic, A. Kumar             : LibInt (2-el integral package), F12 methods 
  Garnet Chan, S. Sharma, J. Yang, R. Olivares  : DMRG                   
  Ulf Ekstrom                                   : XCFun DFT Library      
  Mihaly Kallay                                 : mrcc  (arbitrary order and MRCC methods)
  Frank Weinhold                                : gennbo (NPA and NBO analysis)           
  Simon Mueller                                 : openCOSMO-RS                            
  Christopher J. Cramer and Donald G. Truhlar   : smd solvation model                     
  S Lehtola, MJT Oliveira, MAL Marques          : LibXC Library                           
  Liviu Ungur et al                             : ANISO software                          


 Your calculation uses the libint2 library for the computation of 2-el integrals
 For citations please refer to: http://libint.valeyev.net

 Your ORCA version has been built with support for libXC version: 6.2.2
 For citations please refer to: https://libxc.gitlab.io

 This ORCA versions uses:
   CBLAS   interface :  Fast vector & matrix operations
   LAPACKE interface :  Fast linear algebra routines
   Shared memory     :  Shared parallel matrices


NOTE: MaxCore=4000 MB was set to SCF,MP2,MDCI,CIPSI,MRCI and CIS
      => If you want to overwrite this, your respective input block should be placed after the MaxCore statement
Warning: RI is on but no J-basis has been assigned. Assigning Def2/J (nothing to worry about!)
================================================================================

----- Orbital basis set information -----
Your calculation utilizes the basis: def2-TZVPP
   F. Weigend and R. Ahlrichs, Phys. Chem. Chem. Phys. 7, 3297 (2005).

----- AuxJ basis set information -----
Your calculation utilizes the auxiliary basis: def2/J
   F. Weigend, Phys. Chem. Chem. Phys. 8, 1057 (2006).

================================================================================
                                        WARNINGS
                       Please study these warnings very carefully!
================================================================================


WARNING: Geometry Optimization
  ===> : Switching off AutoStart
         For restart on a previous wavefunction, please use MOREAD

================================================================================
                                       INPUT FILE
================================================================================
NAME = NH3_Opt_Geom-PBE0.inp
|  1> ! PBE0 def2-TZVPP Opt TightOpt VeryTightSCF
|  2> 
|  3> %scf
|  4>    MaxIter 400          # Máximo de iteraciones permitidas para el SCF
|  5> end
|  6> 
|  7> %geom
|  8>    TolRMSD 1.0e-5
|  9>    TolMAXD 1.0e-4
| 10>    TolRMSG 1.0e-5
| 11>    TolMAXG 1.0e-4
| 12> end
| 13> 
| 14> %pal
| 15>    nprocs 1
| 16> end
| 17> 
| 18> 
| 19> %MaxCore 4000            # Memoria máxima por núcleo (en MB)
| 20> 
| 21> * xyz 0 1
| 22> N       0.00000000    0.00000000    0.11361500
| 23> H       0.00000000    0.93799100   -0.26510100
| 24> H      -0.81232400   -0.46899600   -0.26510100
| 25> H       0.81232400   -0.46899600   -0.26510100
| 26> **                         ****END OF INPUT****
================================================================================

                       *****************************
                       * Geometry Optimization Run *
                       *****************************

Geometry optimization settings:
Update method            Update   .... BFGS
Choice of coordinates    CoordSys .... (2022) Redundant Internals
Initial Hessian          InHess   .... Almloef's Model
Max. no of cycles        MaxIter  .... 50

Convergence Tolerances:
Energy Change            TolE     ....  1.0000e-06 Eh
Max. Gradient            TolMAXG  ....  1.0000e-04 Eh/bohr
RMS Gradient             TolRMSG  ....  1.0000e-05 Eh/bohr
Max. Displacement        TolMAXD  ....  1.0000e-04 bohr
RMS Displacement         TolRMSD  ....  1.0000e-05 bohr
Strict Convergence                .... False

------------------------------------------------------------------------------
                        ORCA OPTIMIZATION COORDINATE SETUP
------------------------------------------------------------------------------

The optimization will be done in redundant internal coordinates (2022)
Making redundant internal coordinates   ...  (2022 redundants) done
Evaluating the initial hessian          ...  (Almloef) done
Evaluating the coordinates              ...  done
Calculating the B-matrix                .... done
Calculating the G-matrix                .... done
Diagonalizing the G-matrix              .... done
The first mode is                       ....    1
The number of degrees of freedom        ....    6

    -----------------------------------------------------------------
                    Redundant Internal Coordinates


    -----------------------------------------------------------------
         Definition                    Initial Value    Approx d2E/dq
    -----------------------------------------------------------------
      1. B(H   1,N   0)                  1.0116         0.430236   
      2. B(H   2,N   0)                  1.0116         0.430236   
      3. B(H   3,N   0)                  1.0116         0.430236   
      4. A(H   1,N   0,H   3)          106.8430         0.302702   
      5. A(H   2,N   0,H   3)          106.8430         0.302702   
      6. A(H   1,N   0,H   2)          106.8430         0.302702   
      7. I(H   1,H   3,H   2,N   0)     60.9075         0.003864   
    -----------------------------------------------------------------

Number of atoms                         .... 4
Number of degrees of freedom            .... 7


         *************************************************************
         *                GEOMETRY OPTIMIZATION CYCLE   1            *
         *************************************************************
---------------------------------
CARTESIAN COORDINATES (ANGSTROEM)
---------------------------------
  N      0.000000    0.000000    0.113615
  H      0.000000    0.937991   -0.265101
  H     -0.812324   -0.468996   -0.265101
  H      0.812324   -0.468996   -0.265101

----------------------------
CARTESIAN COORDINATES (A.U.)
----------------------------
  NO LB      ZA    FRAG     MASS         X           Y           Z
   0 N     7.0000    0    14.007    0.000000    0.000000    0.214701
   1 H     1.0000    0     1.008    0.000000    1.772546   -0.500968
   2 H     1.0000    0     1.008   -1.535070   -0.886274   -0.500968
   3 H     1.0000    0     1.008    1.535070   -0.886274   -0.500968

--------------------------------
INTERNAL COORDINATES (ANGSTROEM)
--------------------------------
 N      0   0   0     0.000000000000     0.00000000     0.00000000
 H      1   0   0     1.011559649619     0.00000000     0.00000000
 H      1   2   0     1.011559853715   106.84302597     0.00000000
 H      1   2   3     1.011559853715   106.84302597   114.07643751

---------------------------
INTERNAL COORDINATES (A.U.)
---------------------------
 N      0   0   0     0.000000000000     0.00000000     0.00000000
 H      1   0   0     1.911570705905     0.00000000     0.00000000
 H      1   2   0     1.911571091591   106.84302597     0.00000000
 H      1   2   3     1.911571091591   106.84302597   114.07643751

---------------------
BASIS SET INFORMATION
---------------------
There are 2 groups of distinct atoms

 Group   1 Type N   : 11s6p2d1f contracted to 5s3p2d1f pattern {62111/411/11/1}
 Group   2 Type H   : 5s2p1d contracted to 3s2p1d pattern {311/11/1}

Atom   0N    basis set group =>   1
Atom   1H    basis set group =>   2
Atom   2H    basis set group =>   2
Atom   3H    basis set group =>   2
---------------------------------
AUXILIARY/J BASIS SET INFORMATION
---------------------------------
There are 2 groups of distinct atoms

 Group   1 Type N   : 12s5p4d2f1g contracted to 6s4p3d1f1g pattern {711111/2111/211/2/1}
 Group   2 Type H   : 5s2p1d contracted to 3s1p1d pattern {311/2/1}

Atom   0N    basis set group =>   1
Atom   1H    basis set group =>   2
Atom   2H    basis set group =>   2
Atom   3H    basis set group =>   2
------------------------------------------------------------------------------
                             ORCA STARTUP CALCULATIONS
                           -- RI-GTO INTEGRALS CHOSEN --
------------------------------------------------------------------------------
------------------------------------------------------------------------------
                   ___                                                        
                  /   \      - P O W E R E D   B Y -                         
                 /     \                                                     
                 |  |  |   _    _      __       _____    __    __             
                 |  |  |  | |  | |    /  \     |  _  \  |  |  /  |          
                  \  \/   | |  | |   /    \    | | | |  |  | /  /          
                 / \  \   | |__| |  /  /\  \   | |_| |  |  |/  /          
                |  |  |   |  __  | /  /__\  \  |    /   |      \           
                |  |  |   | |  | | |   __   |  |    \   |  |\   \          
                \     /   | |  | | |  |  |  |  | |\  \  |  | \   \       
                 \___/    |_|  |_| |__|  |__|  |_| \__\ |__|  \__/        
                                                                              
                      - O R C A' S   B I G   F R I E N D -                    
                                      &                                       
                       - I N T E G R A L  F E E D E R -                       
                                                                              
 v1 FN, 2020, v2 2021, v3 2022-2024                                           
------------------------------------------------------------------------------


----------------------
SHARK INTEGRAL PACKAGE
----------------------

Number of atoms                             ...      4
Number of basis functions                   ...     73
Number of shells                            ...     29
Maximum angular momentum                    ...      3
Integral batch strategy                     ... SHARK/LIBINT Hybrid
RI-J (if used) integral strategy            ... SPLIT-RIJ (Revised 2003 algorithm where possible)
Printlevel                                  ...      1
Contraction scheme used                     ... SEGMENTED contraction
Prescreening option                         ... SCHWARTZ
   Thresh                                   ... 1.000e-12
   Tcut                                     ... 1.000e-14
   Tpresel                                  ... 1.000e-14 
Coulomb Range Separation                    ... NOT USED
Exchange Range Separation                   ... NOT USED
Multipole approximations                    ... NOT USED
Finite Nucleus Model                        ... NOT USED
CABS basis                                  ... NOT available
Auxiliary Coulomb fitting basis             ... AVAILABLE
   # of basis functions in Aux-J            ...     82
   # of shells in Aux-J                     ...     30
   Maximum angular momentum in Aux-J        ...      4
Auxiliary J/K fitting basis                 ... NOT available
Auxiliary Correlation fitting basis         ... NOT available
Auxiliary 'external' fitting basis          ... NOT available

Checking pre-screening integrals            ... done (  0.0 sec) Dimension = 29
Check shell pair data                       ... done (  0.0 sec)
Shell pair information
Shell pair cut-off parameter TPreSel        ...   1.0e-14
Total number of shell pairs                 ...       435
Shell pairs after pre-screening             ...       435
Total number of primitive shell pairs       ...      1021
Primitive shell pairs kept                  ...       991
          la=0 lb=0:    105 shell pairs
          la=1 lb=0:    126 shell pairs
          la=1 lb=1:     45 shell pairs
          la=2 lb=0:     70 shell pairs
          la=2 lb=1:     45 shell pairs
          la=2 lb=2:     15 shell pairs
          la=3 lb=0:     14 shell pairs
          la=3 lb=1:      9 shell pairs
          la=3 lb=2:      5 shell pairs
          la=3 lb=3:      1 shell pairs

Calculating one electron integrals          ... done (  0.0 sec)
Calculating RI/J V-Matrix + Cholesky decomp.... done (  0.0 sec)
Calculating Nuclear repulsion               ... done (  0.0 sec) ENN=     11.962882715546 Eh

Diagonalization of the overlap matrix:
Smallest eigenvalue                        ... 8.866e-04
Time for diagonalization                   ...    0.001 sec
Threshold for overlap eigenvalues          ... 1.000e-07
Number of eigenvalues below threshold      ... 0
Time for construction of square roots      ...    0.001 sec
Total time needed                          ...    0.007 sec

-------------------
DFT GRID GENERATION
-------------------

General Integration Accuracy     IntAcc      ... 4.388
Radial Grid Type                 RadialGrid  ... OptM3 with GC (2021)
Angular Grid (max. ang.)         AngularGrid ... 4 (Lebedev-302)
Angular grid pruning method      GridPruning ... 4 (adaptive)
Weight generation scheme         WeightScheme... mBecke (2022)
Basis function cutoff            BFCut       ... 1.0000e-12
Integration weight cutoff        WCut        ... 1.0000e-14
Partially contracted basis set               ... off
Rotationally invariant grid construction     ... off
Angular grids for H and He will be reduced by one unit

Total number of grid points                  ...    16020
Total number of batches                      ...      252
Average number of points per batch           ...       63
Average number of grid points per atom       ...     4005

--------------------
COSX GRID GENERATION
--------------------

GRIDX 1
-------
General Integration Accuracy     IntAcc      ... 3.816
Radial Grid Type                 RadialGrid  ... OptM3 with GC (2021)
Angular Grid (max. ang.)         AngularGrid ... 1 (Lebedev-50)
Angular grid pruning method      GridPruning ... 4 (adaptive)
Weight generation scheme         WeightScheme... mBecke (2022)
Basis function cutoff            BFCut       ... 1.0000e-12
Integration weight cutoff        WCut        ... 1.0000e-14
Partially contracted basis set               ... on
Rotationally invariant grid construction     ... off
Angular grids for H and He will be reduced by one unit

Total number of grid points                  ...     2101
Total number of batches                      ...       19
Average number of points per batch           ...      110
Average number of grid points per atom       ...      525
UseSFitting                                  ... on

GRIDX 2
-------
General Integration Accuracy     IntAcc      ... 4.020
Radial Grid Type                 RadialGrid  ... OptM3 with GC (2021)
Angular Grid (max. ang.)         AngularGrid ... 2 (Lebedev-110)
Angular grid pruning method      GridPruning ... 4 (adaptive)
Weight generation scheme         WeightScheme... mBecke (2022)
Basis function cutoff            BFCut       ... 1.0000e-12
Integration weight cutoff        WCut        ... 1.0000e-14
Partially contracted basis set               ... on
Rotationally invariant grid construction     ... off
Angular grids for H and He will be reduced by one unit

Total number of grid points                  ...     4304
Total number of batches                      ...       36
Average number of points per batch           ...      119
Average number of grid points per atom       ...     1076
UseSFitting                                  ... on

GRIDX 3
-------
General Integration Accuracy     IntAcc      ... 4.338
Radial Grid Type                 RadialGrid  ... OptM3 with GC (2021)
Angular Grid (max. ang.)         AngularGrid ... 3 (Lebedev-194)
Angular grid pruning method      GridPruning ... 4 (adaptive)
Weight generation scheme         WeightScheme... mBecke (2022)
Basis function cutoff            BFCut       ... 1.0000e-12
Integration weight cutoff        WCut        ... 1.0000e-14
Partially contracted basis set               ... on
Rotationally invariant grid construction     ... off
Angular grids for H and He will be reduced by one unit

Total number of grid points                  ...     9470
Total number of batches                      ...       75
Average number of points per batch           ...      126
Average number of grid points per atom       ...     2368
UseSFitting                                  ... on
Initializing property integral containers    ... done (  0.0 sec)

SHARK setup successfully completed in   0.2 seconds

Maximum memory used throughout the entire STARTUP-calculation: 13.7 MB
-------------------------------------------------------------------------------
                                 ORCA GUESS
                   Start orbitals & Density for SCF / CASSCF
-------------------------------------------------------------------------------

------------
SCF SETTINGS
------------
Hamiltonian:
 Density Functional     Method          .... DFT(GTOs)
 Exchange Functional    Exchange        .... PBE
   PBE kappa parameter   XKappa         ....  0.804000
   PBE mue parameter    XMuePBE         ....  0.219520
 Correlation Functional Correlation     .... PBE
   PBE beta parameter  CBetaPBE         ....  0.066725
 LDA part of GGA corr.  LDAOpt          .... PW91-LDA
 Gradients option       PostSCFGGA      .... off
 Hybrid DFT is turned on
   Fraction HF Exchange ScalHFX         ....  0.250000
   Scaling of DF-GGA-X  ScalDFX         ....  0.750000
   Scaling of DF-GGA-C  ScalDFC         ....  1.000000
   Scaling of DF-LDA-C  ScalLDAC        ....  1.000000
   Perturbative correction              ....  0.000000
   NL short-range parameter             ....  6.900000
 RI-approximation to the Coulomb term is turned on
   Number of AuxJ basis functions       .... 82
   RIJ-COSX (HFX calculated with COS-X)).... on


General Settings:
 Integral files         IntName         .... NH3_Opt_Geom-PBE0
 Hartree-Fock type      HFTyp           .... RHF
 Total Charge           Charge          ....    0
 Multiplicity           Mult            ....    1
 Number of Electrons    NEL             ....   10
 Basis Dimension        Dim             ....   73
 Nuclear Repulsion      ENuc            ....     11.9628827155 Eh

Convergence Acceleration:
 AO-DIIS                CNVDIIS         .... on
   Start iteration      DIISMaxIt       ....    12
   Startup error        DIISStart       ....  0.200000
   # of expansion vecs  DIISMaxEq       ....     5
   Bias factor          DIISBfac        ....   1.050
   Max. coefficient     DIISMaxC        ....  10.000
 MO-DIIS                CNVKDIIS        .... off
 Trust-Rad. Augm. Hess. CNVTRAH         .... auto
   Auto Start mean grad. ratio tolernc. ....  1.125000
   Auto Start start iteration           ....    50
   Auto Start num. interpolation iter.  ....    10
   Max. Number of Micro iterations      ....    24
   Max. Number of Macro iterations      .... Maxiter - #DIIS iter
   Number of Davidson start vectors     ....     2
   Converg. threshold    (grad. norm)   ....   2.000e-06
   Grad. Scal. Fac. for Micro threshold ....   0.100
   Minimum threshold for Micro iter.    ....   1.000e-02
   NR start threshold (gradient norm)   ....   1.000e-04
   Initial trust radius                 ....   0.400
   Minimum AH scaling param. (alpha)    ....   1.000
   Maximum AH scaling param. (alpha)    .... 1000.000
   Quad. conv. algorithm                .... NR
   White noise on init. David. guess    .... on
   Maximum white noise                  ....   0.010
   Pseudo random numbers                .... off
   Inactive MOs                         .... canonical
   Orbital update algorithm             .... Taylor
   Preconditioner                       .... Diag
   Full preconditioner red. dimension   ....   250
 SOSCF                  CNVSOSCF        .... on
   Start iteration      SOSCFMaxIt      ....   150
   Startup grad/error   SOSCFStart      ....  0.003300
   Hessian update       SOSCFHessUp     .... L-BFGS
 Level Shifting         CNVShift        .... on
   Level shift para.    LevelShift      ....    0.2500
   Turn off err/grad.   ShiftErr        ....    0.0010
 Zerner damping         CNVZerner       .... off
 Static damping         CNVDamp         .... on
   Fraction old density DampFac         ....    0.7000
   Max. Damping (<1)    DampMax         ....    0.9800
   Min. Damping (>=0)   DampMin         ....    0.0000
   Turn off err/grad.   DampErr         ....    0.1000

SCF Procedure:
 Maximum # iterations   MaxIter         ....   400
 SCF integral mode      SCFMode         .... Direct
   Integral package                     .... SHARK and LIBINT hybrid scheme
 Reset frequency        DirectResetFreq ....    20
 Integral Threshold     Thresh          ....  1.000e-12 Eh
 Primitive CutOff       TCut            ....  1.000e-14 Eh

Convergence Tolerance:
 Convergence Check Mode ConvCheckMode   .... Total+1el-Energy
 Convergence forced     ConvForced      .... 0
 Energy Change          TolE            ....  1.000e-09 Eh
 1-El. energy change                    ....  1.000e-06 Eh
 Orbital Gradient       TolG            ....  2.000e-06
 Orbital Rotation angle TolX            ....  2.000e-06
 DIIS Error             TolErr          ....  1.000e-08

------------------------------
INITIAL GUESS: MODEL POTENTIAL
------------------------------
Loading Hartree-Fock densities                     ... done
Calculating cut-offs                               ... done
Initializing the effective Hamiltonian             ... done
Setting up the integral package (SHARK)            ... done
Starting the Coulomb interaction                   ... done (   0.0 sec)
Making the grid                                    ... done (   0.0 sec)
Mapping shells                                     ... done
Starting the XC term evaluation                    ... done (   0.0 sec)
  promolecular density results
     # of electrons  =      9.997943079
     EX              =     -7.404790343
     EC              =     -0.305713060
     EX+EC           =     -7.710503403
Transforming the Hamiltonian                       ... done (   0.0 sec)
Diagonalizing the Hamiltonian                      ... done (   0.0 sec)
Back transforming the eigenvectors                 ... done (   0.0 sec)
Now organizing SCF variables                       ... done
                      ------------------
                      INITIAL GUESS DONE (   0.1 sec)
                      ------------------
             **** ENERGY FILE WAS UPDATED (NH3_Opt_Geom-PBE0.en.tmp) ****
Finished Guess after   0.1 sec
Maximum memory used throughout the entire GUESS-calculation: 7.6 MB

-------------------------------------------------------------------------------------------
                                      ORCA LEAN-SCF
                              memory conserving SCF solver
-------------------------------------------------------------------------------------------

----------------------------------------D-I-I-S--------------------------------------------
Iteration    Energy (Eh)           Delta-E    RMSDP     MaxDP     DIISErr   Damp  Time(sec)
-------------------------------------------------------------------------------------------
               ***  Starting incremental Fock matrix formation  ***
    1    -56.3991332163635519     0.00e+00  3.20e-03  6.14e-02  3.40e-01  0.700   0.3
    2    -56.4565011139983994    -5.74e-02  2.18e-03  4.42e-02  1.57e-01  0.700   0.2
                               ***Turning on AO-DIIS***
    3    -56.4767550132372946    -2.03e-02  7.10e-04  1.09e-02  4.39e-02  0.700   0.2
    4    -56.4887311127809824    -1.20e-02  8.58e-04  1.32e-02  1.57e-02  0.000   0.2
    5    -56.5157468001329732    -2.70e-02  3.20e-04  6.44e-03  1.20e-02  0.000   0.2
                              *** Initializing SOSCF ***
---------------------------------------S-O-S-C-F--------------------------------------
Iteration    Energy (Eh)           Delta-E    RMSDP     MaxDP     MaxGrad    Time(sec)
--------------------------------------------------------------------------------------
    6    -56.5158879135828869    -1.41e-04  9.53e-05  1.69e-03  2.25e-03     0.2
               *** Restarting incremental Fock matrix formation ***
    7    -56.5159150167969528    -2.71e-05  4.16e-05  5.56e-04  2.24e-04     0.2
    8    -56.5159152328250372    -2.16e-07  1.09e-05  1.79e-04  1.34e-04     0.2
    9    -56.5159153507615883    -1.18e-07  6.92e-06  8.26e-05  3.69e-05     0.2
   10    -56.5159153629124091    -1.22e-08  6.97e-07  9.88e-06  3.44e-06     0.2
   11    -56.5159153630135904    -1.01e-10  5.43e-08  7.87e-07  3.16e-07     0.2
                 **** Energy Check signals convergence ****

               *****************************************************
               *                     SUCCESS                       *
               *           SCF CONVERGED AFTER  11 CYCLES          *
               *****************************************************

Recomputing exchange energy using gridx3       ... done (    0.251 sec)
Old exchange energy                            :     -1.916843972 Eh
New exchange energy                            :     -1.916849524 Eh
Exchange energy change after final integration :     -0.000005552 Eh
Total energy after final integration           :    -56.515920915 Eh
             **** ENERGY FILE WAS UPDATED (NH3_Opt_Geom-PBE0.en.tmp) ****

----------------
TOTAL SCF ENERGY
----------------

Total Energy       :        -56.51592091528597 Eh           -1537.87639 eV

Components:
Nuclear Repulsion  :         11.96288271554579 Eh             325.52659 eV
Electronic Energy  :        -68.47879807855938 Eh           -1863.40283 eV
One Electron Energy:        -99.73135703812463 Eh           -2713.82819 eV
Two Electron Energy:         31.25255895956525 Eh             850.42536 eV

Virial components:
Potential Energy   :       -112.77603046461294 Eh           -3068.79180 eV
Kinetic Energy     :         56.26010954932697 Eh            1530.91541 eV
Virial Ratio       :          2.00454694041672

DFT components:
N(Alpha)           :        4.999998483417 electrons
N(Beta)            :        4.999998483417 electrons
N(Total)           :        9.999996966834 electrons
E(X)               :       -5.732779048756 Eh       
E(C)               :       -0.316246312107 Eh       
E(XC)              :       -6.049025360863 Eh       

---------------
SCF CONVERGENCE
---------------

  Last Energy change         ...    1.0118e-10  Tolerance :   1.0000e-09
  Last MAX-Density change    ...    7.8694e-07  Tolerance :   1.0000e-08
  Last RMS-Density change    ...    5.4307e-08  Tolerance :   1.0000e-09
  Last DIIS Error            ...    2.2498e-03  Tolerance :   1.0000e-08
  Last Orbital Gradient      ...    3.1649e-07  Tolerance :   2.0000e-06
  Last Orbital Rotation      ...    3.5324e-07  Tolerance :   2.0000e-06


----------------
ORBITAL ENERGIES
----------------

  NO   OCC          E(Eh)            E(eV) 
   0   2.0000     -14.354488      -390.6055 
   1   2.0000      -0.874526       -23.7971 
   2   2.0000      -0.473337       -12.8802 
   3   2.0000      -0.473333       -12.8800 
   4   2.0000      -0.279282        -7.5996 
   5   0.0000       0.038172         1.0387 
   6   0.0000       0.122481         3.3329 
   7   0.0000       0.122487         3.3330 
   8   0.0000       0.312107         8.4929 
   9   0.0000       0.312115         8.4931 
  10   0.0000       0.355553         9.6751 
  11   0.0000       0.444143        12.0857 
  12   0.0000       0.493396        13.4260 
  13   0.0000       0.506041        13.7701 
  14   0.0000       0.506043        13.7701 
  15   0.0000       0.579361        15.7652 
*Only the first 10 virtual orbitals were printed.

                    ********************************
                    * MULLIKEN POPULATION ANALYSIS *
                    ********************************

-----------------------
MULLIKEN ATOMIC CHARGES
-----------------------
   0 N :   -0.483558
   1 H :    0.161145
   2 H :    0.161207
   3 H :    0.161207
Sum of atomic charges:    0.0000000

--------------------------------
MULLIKEN REDUCED ORBITAL CHARGES
--------------------------------
  0 N s       :     3.514446  s :     3.514446
      pz      :     1.742579  p :     3.947607
      px      :     1.102481
      py      :     1.102547
      dz2     :     0.001544  d :     0.020952
      dxz     :     0.006923
      dyz     :     0.006928
      dx2y2   :     0.002777
      dxy     :     0.002779
      f0      :     0.000373  f :     0.000553
      f+1     :     0.000076
      f-1     :     0.000076
      f+2     :    -0.000061
      f-2     :    -0.000061
      f+3     :     0.000000
      f-3     :     0.000150

  1 H s       :     0.768154  s :     0.768154
      pz      :     0.032033  p :     0.065921
      px      :     0.016210
      py      :     0.017678
      dz2     :     0.000672  d :     0.004781
      dxz     :     0.000098
      dyz     :     0.002084
      dx2y2   :     0.000666
      dxy     :     0.001261

  2 H s       :     0.768106  s :     0.768106
      pz      :     0.032027  p :     0.065906
      px      :     0.017305
      py      :     0.016574
      dz2     :     0.000672  d :     0.004781
      dxz     :     0.001588
      dyz     :     0.000594
      dx2y2   :     0.001112
      dxy     :     0.000815

  3 H s       :     0.768106  s :     0.768106
      pz      :     0.032027  p :     0.065906
      px      :     0.017305
      py      :     0.016574
      dz2     :     0.000672  d :     0.004781
      dxz     :     0.001588
      dyz     :     0.000594
      dx2y2   :     0.001112
      dxy     :     0.000815



                     *******************************
                     * LOEWDIN POPULATION ANALYSIS *
                     *******************************

----------------------
LOEWDIN ATOMIC CHARGES
----------------------
   0 N :    0.181005
   1 H :   -0.060335
   2 H :   -0.060335
   3 H :   -0.060335

-------------------------------
LOEWDIN REDUCED ORBITAL CHARGES
-------------------------------
  0 N s       :     2.952060  s :     2.952060
      pz      :     1.516446  p :     3.773197
      px      :     1.128368
      py      :     1.128383
      dz2     :     0.004442  d :     0.086079
      dxz     :     0.015234
      dyz     :     0.015235
      dx2y2   :     0.025583
      dxy     :     0.025584
      f0      :     0.000539  f :     0.007660
      f+1     :     0.000003
      f-1     :     0.000003
      f+2     :     0.002480
      f-2     :     0.002480
      f+3     :     0.000000
      f-3     :     0.002154

  1 H s       :     0.745225  s :     0.745225
      pz      :     0.110527  p :     0.257293
      px      :     0.052983
      py      :     0.093783
      dz2     :     0.008668  d :     0.057817
      dxz     :     0.001678
      dyz     :     0.020562
      dx2y2   :     0.011580
      dxy     :     0.015329

  2 H s       :     0.745223  s :     0.745223
      pz      :     0.110529  p :     0.257295
      px      :     0.083584
      py      :     0.063182
      dz2     :     0.008668  d :     0.057817
      dxz     :     0.015841
      dyz     :     0.006399
      dx2y2   :     0.014392
      dxy     :     0.012517

  3 H s       :     0.745223  s :     0.745223
      pz      :     0.110529  p :     0.257295
      px      :     0.083584
      py      :     0.063182
      dz2     :     0.008668  d :     0.057817
      dxz     :     0.015841
      dyz     :     0.006399
      dx2y2   :     0.014392
      dxy     :     0.012517



                      *****************************
                      * MAYER POPULATION ANALYSIS *
                      *****************************

  NA   - Mulliken gross atomic population
  ZA   - Total nuclear charge
  QA   - Mulliken gross atomic charge
  VA   - Mayer's total valence
  BVA  - Mayer's bonded valence
  FA   - Mayer's free valence

  ATOM       NA         ZA         QA         VA         BVA        FA
  0 N      7.4836     7.0000    -0.4836     3.0047     3.0047     0.0000
  1 H      0.8389     1.0000     0.1611     1.0243     1.0243    -0.0000
  2 H      0.8388     1.0000     0.1612     1.0242     1.0242     0.0000
  3 H      0.8388     1.0000     0.1612     1.0242     1.0242    -0.0000

  Mayer bond orders larger than 0.100000
B(  0-N ,  1-H ) :   1.0016 B(  0-N ,  2-H ) :   1.0015 B(  0-N ,  3-H ) :   1.0015 


-------
TIMINGS
-------

Total SCF time: 0 days 0 hours 0 min 2 sec 

Total time                  ....       2.706 sec
Sum of individual times     ....       2.675 sec  ( 98.9%)

SCF preparation             ....       0.049 sec  (  1.8%)
Fock matrix formation       ....       2.059 sec  ( 76.1%)
  Startup                   ....       0.016 sec  (  0.8% of F)
  Split-RI-J                ....       0.093 sec  (  4.5% of F)
  Chain of spheres X        ....       1.296 sec  ( 62.9% of F)
  XC integration            ....       0.622 sec  ( 30.2% of F)
    Basis function eval.    ....       0.171 sec  ( 27.5% of XC)
    Density eval.           ....       0.099 sec  ( 15.9% of XC)
    XC-Functional eval.     ....       0.035 sec  (  5.6% of XC)
    XC-Potential eval.      ....       0.247 sec  ( 39.7% of XC)
Diagonalization             ....       0.000 sec  (  0.0%)
Density matrix formation    ....       0.189 sec  (  7.0%)
Total Energy calculation    ....       0.087 sec  (  3.2%)
Population analysis         ....       0.013 sec  (  0.5%)
Orbital Transformation      ....       0.018 sec  (  0.7%)
Orbital Orthonormalization  ....       0.000 sec  (  0.0%)
DIIS solution               ....       0.168 sec  (  6.2%)
SOSCF solution              ....       0.092 sec  (  3.4%)
Finished LeanSCF after   2.7 sec

Maximum memory used throughout the entire LEANSCF-calculation: 7.2 MB

-------------------------   --------------------
FINAL SINGLE POINT ENERGY       -56.515920915286
-------------------------   --------------------

------------------------------------------------------------------------------
                         ORCA SCF GRADIENT CALCULATION
------------------------------------------------------------------------------

Nuc. rep. gradient        (SHARK) ... done (  0.0 sec)
HCore & Overlap gradient  (SHARK) ... done (  0.0 sec)
Split-RIJ-J gradient      (SHARK) ... done (  0.1 sec)
COSX-gradient                     ... done (  1.3 sec)
XC gradient                       ... done (  0.3 sec)

------------------
CARTESIAN GRADIENT
------------------

   1   N   :    0.000000005   -0.000013094   -0.000200829
   2   H   :    0.000000000   -0.000132984    0.000068660
   3   H   :    0.000121597    0.000073040    0.000066081
   4   H   :   -0.000121603    0.000073038    0.000066088

Difference to translation invariance:
           :    0.0000000000   -0.0000000000    0.0000000000

Difference to rotation invariance:
           :    0.0000139355   -0.0000000060   -0.0000000092

Norm of the Cartesian gradient     ...    0.0003344840
RMS gradient                       ...    0.0000965572
MAX gradient                       ...    0.0002008287

-------
TIMINGS
-------

Total SCF gradient time     ....        1.702 sec

One electron gradient       ....       0.009 sec  (  0.5%)
RI-J Coulomb gradient       ....       0.062 sec  (  3.6%)
COSX gradient               ....       1.326 sec  ( 77.9%)
XC gradient                 ....       0.305 sec  ( 17.9%)

Maximum memory used throughout the entire SCFGRAD-calculation: 9.7 MB
------------------------------------------------------------------------------
                         ORCA GEOMETRY RELAXATION STEP
------------------------------------------------------------------------------

Reading the OPT-File                    .... done
Getting information on internals        .... done
Copying old internal coords+grads       .... done
Making the new internal coordinates     .... (2022 redundants) done
Validating the new internal coordinates .... (2022 redundants) done
Calculating the B-matrix                .... done
Calculating the G,G- and P matrices     .... done
Transforming gradient to internals      .... done
Projecting the internal gradient        .... done
Number of atoms                         ....   4
Number of internal coordinates          ....   7
Current Energy                          ....   -56.515920915 Eh
Current gradient norm                   ....     0.000334484 Eh/bohr
Maximum allowed component of the step   ....  0.300
Current trust radius                    ....  0.300
Evaluating the initial hessian          ....  (Almloef) done
Projecting the Hessian                  .... done
Forming the augmented Hessian           .... done
Diagonalizing the augmented Hessian     .... done
Last element of RFO vector              ....  0.999999796
Lowest eigenvalues of augmented Hessian:
 -0.000000168  0.109474594  0.302702113  0.302702146  0.430235541
Length of the computed step             ....  0.000639213
The final length of the internal step   ....  0.000639213
Converting the step to Cartesian space:
 Initial RMS(Int)=    0.0002415998
Transforming coordinates:
 Iter   0:  RMS(Cart)=    0.0001575777 RMS(Int)=    0.0002415989
done
Storing new coordinates                 .... done

                                .--------------------.
          ----------------------|Geometry convergence|-------------------------
          Item                value                   Tolerance       Converged
          ---------------------------------------------------------------------
          RMS gradient        0.0001010782            0.0000100000      NO
          MAX gradient        0.0001569376            0.0001000000      NO
          RMS step            0.0002415998            0.0000100000      NO
          MAX step            0.0003647712            0.0001000000      NO
          ........................................................
          Max(Bonds)      0.0002      Max(Angles)    0.00
          Max(Dihed)        0.00      Max(Improp)    0.01
          ---------------------------------------------------------------------

The optimization has not yet converged - more geometry cycles are needed


    ---------------------------------------------------------------------------
                         Redundant Internal Coordinates
                            (Angstroem and degrees)

        Definition                    Value    dE/dq     Step     New-Value
    ----------------------------------------------------------------------------
     1. B(H   1,N   0)                1.0116 -0.000148  0.0002    1.0117   
     2. B(H   2,N   0)                1.0116 -0.000157  0.0002    1.0118   
     3. B(H   3,N   0)                1.0116 -0.000157  0.0002    1.0118   
     4. A(H   1,N   0,H   3)          106.84  0.000004   -0.00    106.84   
     5. A(H   2,N   0,H   3)          106.84  0.000016   -0.00    106.84   
     6. A(H   1,N   0,H   2)          106.84  0.000004   -0.00    106.84   
     7. I(H   1,H   3,H   2,N   0)     60.91 -0.000013    0.01     60.91   
    ----------------------------------------------------------------------------

Geometry step timings:
Preparation and reading OPT file:      0.001 s (33.333 %)
Internal coordinates            :      0.000 s ( 0.000 %)
B/P matrices and projection     :      0.000 s ( 0.000 %)
Hessian update/contruction      :      0.001 s (33.333 %)
Making the step                 :      0.000 s ( 0.000 %)
Converting the step to Cartesian:      0.000 s ( 0.000 %)
Storing new data                :      0.000 s ( 0.000 %)
Checking convergence            :      0.000 s ( 0.000 %)
Final printing                  :      0.001 s (33.333 %)
Total time                      :      0.003 s

Time for energy+gradient        :      4.874 s
Time for complete geometry iter :      4.935 s

         *************************************************************
         *                GEOMETRY OPTIMIZATION CYCLE   2            *
         *************************************************************
---------------------------------
CARTESIAN COORDINATES (ANGSTROEM)
---------------------------------
  N     -0.000000    0.000006    0.113705
  H      0.000000    0.938145   -0.265130
  H     -0.812458   -0.469076   -0.265132
  H      0.812458   -0.469076   -0.265132

----------------------------
CARTESIAN COORDINATES (A.U.)
----------------------------
  NO LB      ZA    FRAG     MASS         X           Y           Z
   0 N     7.0000    0    14.007   -0.000000    0.000011    0.214872
   1 H     1.0000    0     1.008    0.000000    1.772837   -0.501022
   2 H     1.0000    0     1.008   -1.535324   -0.886425   -0.501027
   3 H     1.0000    0     1.008    1.535324   -0.886425   -0.501027

--------------------------------
INTERNAL COORDINATES (ANGSTROEM)
--------------------------------
 N      0   0   0     0.000000000000     0.00000000     0.00000000
 H      1   0   0     1.011741263335     0.00000000     0.00000000
 H      1   2   0     1.011752876505   106.84004789     0.00000000
 H      1   2   3     1.011752882307   106.84004724   114.06919187

---------------------------
INTERNAL COORDINATES (A.U.)
---------------------------
 N      0   0   0     0.000000000000     0.00000000     0.00000000
 H      1   0   0     1.911913906090     0.00000000     0.00000000
 H      1   2   0     1.911935851802   106.84004789     0.00000000
 H      1   2   3     1.911935862766   106.84004724   114.06919187

------------------------------------------------------------------------------
                   ___                                                        
                  /   \      - P O W E R E D   B Y -                         
                 /     \                                                     
                 |  |  |   _    _      __       _____    __    __             
                 |  |  |  | |  | |    /  \     |  _  \  |  |  /  |          
                  \  \/   | |  | |   /    \    | | | |  |  | /  /          
                 / \  \   | |__| |  /  /\  \   | |_| |  |  |/  /          
                |  |  |   |  __  | /  /__\  \  |    /   |      \           
                |  |  |   | |  | | |   __   |  |    \   |  |\   \          
                \     /   | |  | | |  |  |  |  | |\  \  |  | \   \       
                 \___/    |_|  |_| |__|  |__|  |_| \__\ |__|  \__/        
                                                                              
                      - O R C A' S   B I G   F R I E N D -                    
                                      &                                       
                       - I N T E G R A L  F E E D E R -                       
                                                                              
 v1 FN, 2020, v2 2021, v3 2022-2024                                           
------------------------------------------------------------------------------


----------------------
SHARK INTEGRAL PACKAGE
----------------------

Number of atoms                             ...      4
Number of basis functions                   ...     73
Number of shells                            ...     29
Maximum angular momentum                    ...      3
Integral batch strategy                     ... SHARK/LIBINT Hybrid
RI-J (if used) integral strategy            ... SPLIT-RIJ (Revised 2003 algorithm where possible)
Printlevel                                  ...      1
Contraction scheme used                     ... SEGMENTED contraction
Prescreening option                         ... SCHWARTZ
   Thresh                                   ... 1.000e-12
   Tcut                                     ... 1.000e-14
   Tpresel                                  ... 1.000e-14 
Coulomb Range Separation                    ... NOT USED
Exchange Range Separation                   ... NOT USED
Multipole approximations                    ... NOT USED
Finite Nucleus Model                        ... NOT USED
CABS basis                                  ... NOT available
Auxiliary Coulomb fitting basis             ... AVAILABLE
   # of basis functions in Aux-J            ...     82
   # of shells in Aux-J                     ...     30
   Maximum angular momentum in Aux-J        ...      4
Auxiliary J/K fitting basis                 ... NOT available
Auxiliary Correlation fitting basis         ... NOT available
Auxiliary 'external' fitting basis          ... NOT available

Checking pre-screening integrals            ... done (  0.0 sec) Dimension = 29
Check shell pair data                       ... done (  0.0 sec)
Shell pair information
Shell pair cut-off parameter TPreSel        ...   1.0e-14
Total number of shell pairs                 ...       435
Shell pairs after pre-screening             ...       435
Total number of primitive shell pairs       ...      1021
Primitive shell pairs kept                  ...       991
          la=0 lb=0:    105 shell pairs
          la=1 lb=0:    126 shell pairs
          la=1 lb=1:     45 shell pairs
          la=2 lb=0:     70 shell pairs
          la=2 lb=1:     45 shell pairs
          la=2 lb=2:     15 shell pairs
          la=3 lb=0:     14 shell pairs
          la=3 lb=1:      9 shell pairs
          la=3 lb=2:      5 shell pairs
          la=3 lb=3:      1 shell pairs

Calculating one electron integrals          ... done (  0.0 sec)
Calculating RI/J V-Matrix + Cholesky decomp.... done (  0.0 sec)
Calculating Nuclear repulsion               ... done (  0.0 sec) ENN=     11.960666157652 Eh

Diagonalization of the overlap matrix:
Smallest eigenvalue                        ... 8.875e-04
Time for diagonalization                   ...    0.001 sec
Threshold for overlap eigenvalues          ... 1.000e-07
Number of eigenvalues below threshold      ... 0
Time for construction of square roots      ...    0.001 sec
Total time needed                          ...    0.006 sec

-------------------
DFT GRID GENERATION
-------------------

General Integration Accuracy     IntAcc      ... 4.388
Radial Grid Type                 RadialGrid  ... OptM3 with GC (2021)
Angular Grid (max. ang.)         AngularGrid ... 4 (Lebedev-302)
Angular grid pruning method      GridPruning ... 4 (adaptive)
Weight generation scheme         WeightScheme... mBecke (2022)
Basis function cutoff            BFCut       ... 1.0000e-12
Integration weight cutoff        WCut        ... 1.0000e-14
Partially contracted basis set               ... off
Rotationally invariant grid construction     ... off
Angular grids for H and He will be reduced by one unit

Total number of grid points                  ...    16020
Total number of batches                      ...      252
Average number of points per batch           ...       63
Average number of grid points per atom       ...     4005

--------------------
COSX GRID GENERATION
--------------------

GRIDX 1
-------
General Integration Accuracy     IntAcc      ... 3.816
Radial Grid Type                 RadialGrid  ... OptM3 with GC (2021)
Angular Grid (max. ang.)         AngularGrid ... 1 (Lebedev-50)
Angular grid pruning method      GridPruning ... 4 (adaptive)
Weight generation scheme         WeightScheme... mBecke (2022)
Basis function cutoff            BFCut       ... 1.0000e-12
Integration weight cutoff        WCut        ... 1.0000e-14
Partially contracted basis set               ... on
Rotationally invariant grid construction     ... off
Angular grids for H and He will be reduced by one unit

Total number of grid points                  ...     2101
Total number of batches                      ...       19
Average number of points per batch           ...      110
Average number of grid points per atom       ...      525
UseSFitting                                  ... on

GRIDX 2
-------
General Integration Accuracy     IntAcc      ... 4.020
Radial Grid Type                 RadialGrid  ... OptM3 with GC (2021)
Angular Grid (max. ang.)         AngularGrid ... 2 (Lebedev-110)
Angular grid pruning method      GridPruning ... 4 (adaptive)
Weight generation scheme         WeightScheme... mBecke (2022)
Basis function cutoff            BFCut       ... 1.0000e-12
Integration weight cutoff        WCut        ... 1.0000e-14
Partially contracted basis set               ... on
Rotationally invariant grid construction     ... off
Angular grids for H and He will be reduced by one unit

Total number of grid points                  ...     4304
Total number of batches                      ...       36
Average number of points per batch           ...      119
Average number of grid points per atom       ...     1076
UseSFitting                                  ... on

GRIDX 3
-------
General Integration Accuracy     IntAcc      ... 4.338
Radial Grid Type                 RadialGrid  ... OptM3 with GC (2021)
Angular Grid (max. ang.)         AngularGrid ... 3 (Lebedev-194)
Angular grid pruning method      GridPruning ... 4 (adaptive)
Weight generation scheme         WeightScheme... mBecke (2022)
Basis function cutoff            BFCut       ... 1.0000e-12
Integration weight cutoff        WCut        ... 1.0000e-14
Partially contracted basis set               ... on
Rotationally invariant grid construction     ... off
Angular grids for H and He will be reduced by one unit

Total number of grid points                  ...     9470
Total number of batches                      ...       75
Average number of points per batch           ...      126
Average number of grid points per atom       ...     2368
UseSFitting                                  ... on
Initializing property integral containers    ... done (  0.0 sec)

SHARK setup successfully completed in   0.2 seconds

Maximum memory used throughout the entire STARTUP-calculation: 13.8 MB
Occupation numbers will be reassigned to an Aufbau configuration
             **** ENERGY FILE WAS UPDATED (NH3_Opt_Geom-PBE0.en.tmp) ****
Finished Guess after   0.1 sec
Maximum memory used throughout the entire GUESS-calculation: 7.7 MB
----------------------------------------D-I-I-S--------------------------------------------
Iteration    Energy (Eh)           Delta-E    RMSDP     MaxDP     DIISErr   Damp  Time(sec)
-------------------------------------------------------------------------------------------
               ***  Starting incremental Fock matrix formation  ***
                              *** Initializing SOSCF ***
---------------------------------------S-O-S-C-F--------------------------------------
Iteration    Energy (Eh)           Delta-E    RMSDP     MaxDP     MaxGrad    Time(sec)
--------------------------------------------------------------------------------------
    1    -56.5159153958200449     0.00e+00  5.31e-06  1.14e-04  9.39e-06     0.3
               *** Restarting incremental Fock matrix formation ***
    2    -56.5159154179306285    -2.21e-08  3.31e-06  6.69e-05  2.39e-05     0.2
    3    -56.5159154182720869    -3.41e-10  1.23e-06  2.05e-05  2.67e-05     0.2
                 **** Energy Check signals convergence ****

               *****************************************************
               *                     SUCCESS                       *
               *           SCF CONVERGED AFTER   3 CYCLES          *
               *****************************************************

Recomputing exchange energy using gridx3       ... done (    0.274 sec)
Old exchange energy                            :     -1.916792177 Eh
New exchange energy                            :     -1.916797754 Eh
Exchange energy change after final integration :     -0.000005577 Eh
Total energy after final integration           :    -56.515920995 Eh
             **** ENERGY FILE WAS UPDATED (NH3_Opt_Geom-PBE0.en.tmp) ****

----------------
TOTAL SCF ENERGY
----------------

Total Energy       :        -56.51592099543343 Eh           -1537.87639 eV

Components:
Nuclear Repulsion  :         11.96066615765176 Eh             325.46627 eV
Electronic Energy  :        -68.47658157592384 Eh           -1863.34252 eV
One Electron Energy:        -99.72775010137158 Eh           -2713.73004 eV
Two Electron Energy:         31.25116852544773 Eh             850.38753 eV

Virial components:
Potential Energy   :       -112.77513583041332 Eh           -3068.76746 eV
Kinetic Energy     :         56.25921483497989 Eh            1530.89106 eV
Virial Ratio       :          2.00456291758082

DFT components:
N(Alpha)           :        4.999998482868 electrons
N(Beta)            :        4.999998482868 electrons
N(Total)           :        9.999996965736 electrons
E(X)               :       -5.732647054665 Eh       
E(C)               :       -0.316238264934 Eh       
E(XC)              :       -6.048885319598 Eh       

---------------
SCF CONVERGENCE
---------------

  Last Energy change         ...    3.4146e-10  Tolerance :   1.0000e-09
  Last MAX-Density change    ...    2.0485e-05  Tolerance :   1.0000e-08
  Last RMS-Density change    ...    1.2282e-06  Tolerance :   1.0000e-09
  Last DIIS Error            ...    1.0274e-04  Tolerance :   1.0000e-08
  Last Orbital Gradient      ...    2.6740e-05  Tolerance :   2.0000e-06
  Last Orbital Rotation      ...    1.7509e-05  Tolerance :   2.0000e-06


Total SCF time: 0 days 0 hours 0 min 1 sec 
Finished LeanSCF after   1.1 sec

Maximum memory used throughout the entire LEANSCF-calculation: 7.3 MB

-------------------------   --------------------
FINAL SINGLE POINT ENERGY       -56.515920995433
-------------------------   --------------------

------------------------------------------------------------------------------
                         ORCA SCF GRADIENT CALCULATION
------------------------------------------------------------------------------

Nuc. rep. gradient        (SHARK) ... done (  0.0 sec)
HCore & Overlap gradient  (SHARK) ... done (  0.0 sec)
Split-RIJ-J gradient      (SHARK) ... done (  0.1 sec)
COSX-gradient                     ... done (  1.3 sec)
XC gradient                       ... done (  0.3 sec)

------------------
CARTESIAN GRADIENT
------------------

   1   N   :   -0.000000008   -0.000002855   -0.000034941
   2   H   :    0.000000001    0.000016786    0.000016097
   3   H   :   -0.000015240   -0.000006965    0.000009424
   4   H   :    0.000015247   -0.000006966    0.000009421

Difference to translation invariance:
           :    0.0000000000   -0.0000000000    0.0000000000

Difference to rotation invariance:
           :    0.0000138758   -0.0000000019    0.0000000017

Norm of the Cartesian gradient     ...    0.0000500924
RMS gradient                       ...    0.0000144604
MAX gradient                       ...    0.0000349413

-------
TIMINGS
-------

Total SCF gradient time     ....        1.680 sec

One electron gradient       ....       0.007 sec  (  0.4%)
RI-J Coulomb gradient       ....       0.061 sec  (  3.6%)
COSX gradient               ....       1.309 sec  ( 77.9%)
XC gradient                 ....       0.303 sec  ( 18.0%)

Maximum memory used throughout the entire SCFGRAD-calculation: 9.4 MB
------------------------------------------------------------------------------
                         ORCA GEOMETRY RELAXATION STEP
------------------------------------------------------------------------------

Reading the OPT-File                    .... done
Getting information on internals        .... done
Copying old internal coords+grads       .... done
Making the new internal coordinates     .... (2022 redundants) done
Validating the new internal coordinates .... (2022 redundants) done
Calculating the B-matrix                .... done
Calculating the G,G- and P matrices     .... done
Transforming gradient to internals      .... done
Projecting the internal gradient        .... done
Number of atoms                         ....   4
Number of internal coordinates          ....   7
Current Energy                          ....   -56.515920995 Eh
Current gradient norm                   ....     0.000050092 Eh/bohr
Maximum allowed component of the step   ....  0.300
Current trust radius                    ....  0.300
Updating the Hessian (BFGS)             .... done
Forming the augmented Hessian           .... done
Diagonalizing the augmented Hessian     .... done
Last element of RFO vector              ....  0.999999964
Lowest eigenvalues of augmented Hessian:
 -0.000000009  0.102885329  0.296919421  0.302702146  0.430233311
Length of the computed step             ....  0.000267739
The final length of the internal step   ....  0.000267739
Converting the step to Cartesian space:
 Initial RMS(Int)=    0.0001011959
Transforming coordinates:
 Iter   0:  RMS(Cart)=    0.0000519458 RMS(Int)=    0.0001011966
done
Storing new coordinates                 .... done
The predicted energy change is          ....    -0.000000004
Previously predicted energy change      ....    -0.000000084
Actually observed energy change         ....    -0.000000080
Ratio of predicted to observed change   ....     0.952650729
New trust radius                        ....     0.450000000

                                .--------------------.
          ----------------------|Geometry convergence|-------------------------
          Item                value                   Tolerance       Converged
          ---------------------------------------------------------------------
          Energy change      -0.0000000801            0.0000010000      YES
          RMS gradient        0.0000149409            0.0000100000      NO
          MAX gradient        0.0000230981            0.0001000000      YES
          RMS step            0.0001011959            0.0000100000      NO
          MAX step            0.0002090517            0.0001000000      NO
          ........................................................
          Max(Bonds)      0.0000      Max(Angles)    0.01
          Max(Dihed)        0.00      Max(Improp)    0.01
          ---------------------------------------------------------------------

The optimization has not yet converged - more geometry cycles are needed


    ---------------------------------------------------------------------------
                         Redundant Internal Coordinates
                            (Angstroem and degrees)

        Definition                    Value    dE/dq     Step     New-Value
    ----------------------------------------------------------------------------
     1. B(H   1,N   0)                1.0117  0.000011 -0.0000    1.0117   
     2. B(H   2,N   0)                1.0118  0.000011 -0.0000    1.0117   
     3. B(H   3,N   0)                1.0118  0.000011 -0.0000    1.0117   
     4. A(H   1,N   0,H   3)          106.84  0.000008   -0.01    106.83   
     5. A(H   2,N   0,H   3)          106.84  0.000023   -0.01    106.83   
     6. A(H   1,N   0,H   2)          106.84  0.000008   -0.01    106.83   
     7. I(H   1,H   3,H   2,N   0)     60.91 -0.000023    0.01     60.93   
    ----------------------------------------------------------------------------

Geometry step timings:
Preparation and reading OPT file:      0.005 s (62.500 %)
Internal coordinates            :      0.000 s ( 0.000 %)
B/P matrices and projection     :      0.000 s ( 0.000 %)
Hessian update/contruction      :      0.002 s (25.000 %)
Making the step                 :      0.000 s ( 0.000 %)
Converting the step to Cartesian:      0.000 s ( 0.000 %)
Storing new data                :      0.000 s ( 0.000 %)
Checking convergence            :      0.000 s ( 0.000 %)
Final printing                  :      0.001 s (12.500 %)
Total time                      :      0.008 s

Time for energy+gradient        :      3.172 s
Time for complete geometry iter :      3.222 s

         *************************************************************
         *                GEOMETRY OPTIMIZATION CYCLE   3            *
         *************************************************************
---------------------------------
CARTESIAN COORDINATES (ANGSTROEM)
---------------------------------
  N      0.000000    0.000008    0.113766
  H      0.000000    0.938110   -0.265149
  H     -0.812425   -0.469059   -0.265153
  H      0.812425   -0.469059   -0.265153

----------------------------
CARTESIAN COORDINATES (A.U.)
----------------------------
  NO LB      ZA    FRAG     MASS         X           Y           Z
   0 N     7.0000    0    14.007    0.000000    0.000014    0.214987
   1 H     1.0000    0     1.008    0.000000    1.772771   -0.501060
   2 H     1.0000    0     1.008   -1.535260   -0.886394   -0.501066
   3 H     1.0000    0     1.008    1.535260   -0.886394   -0.501066

--------------------------------
INTERNAL COORDINATES (ANGSTROEM)
--------------------------------
 N      0   0   0     0.000000000000     0.00000000     0.00000000
 H      1   0   0     1.011737697344     0.00000000     0.00000000
 H      1   2   0     1.011749459942   106.83473751     0.00000000
 H      1   2   3     1.011749457362   106.83473751   114.05746080

---------------------------
INTERNAL COORDINATES (A.U.)
---------------------------
 N      0   0   0     0.000000000000     0.00000000     0.00000000
 H      1   0   0     1.911907167345     0.00000000     0.00000000
 H      1   2   0     1.911929395434   106.83473751     0.00000000
 H      1   2   3     1.911929390557   106.83473751   114.05746080

------------------------------------------------------------------------------
                   ___                                                        
                  /   \      - P O W E R E D   B Y -                         
                 /     \                                                     
                 |  |  |   _    _      __       _____    __    __             
                 |  |  |  | |  | |    /  \     |  _  \  |  |  /  |          
                  \  \/   | |  | |   /    \    | | | |  |  | /  /          
                 / \  \   | |__| |  /  /\  \   | |_| |  |  |/  /          
                |  |  |   |  __  | /  /__\  \  |    /   |      \           
                |  |  |   | |  | | |   __   |  |    \   |  |\   \          
                \     /   | |  | | |  |  |  |  | |\  \  |  | \   \       
                 \___/    |_|  |_| |__|  |__|  |_| \__\ |__|  \__/        
                                                                              
                      - O R C A' S   B I G   F R I E N D -                    
                                      &                                       
                       - I N T E G R A L  F E E D E R -                       
                                                                              
 v1 FN, 2020, v2 2021, v3 2022-2024                                           
------------------------------------------------------------------------------


----------------------
SHARK INTEGRAL PACKAGE
----------------------

Number of atoms                             ...      4
Number of basis functions                   ...     73
Number of shells                            ...     29
Maximum angular momentum                    ...      3
Integral batch strategy                     ... SHARK/LIBINT Hybrid
RI-J (if used) integral strategy            ... SPLIT-RIJ (Revised 2003 algorithm where possible)
Printlevel                                  ...      1
Contraction scheme used                     ... SEGMENTED contraction
Prescreening option                         ... SCHWARTZ
   Thresh                                   ... 1.000e-12
   Tcut                                     ... 1.000e-14
   Tpresel                                  ... 1.000e-14 
Coulomb Range Separation                    ... NOT USED
Exchange Range Separation                   ... NOT USED
Multipole approximations                    ... NOT USED
Finite Nucleus Model                        ... NOT USED
CABS basis                                  ... NOT available
Auxiliary Coulomb fitting basis             ... AVAILABLE
   # of basis functions in Aux-J            ...     82
   # of shells in Aux-J                     ...     30
   Maximum angular momentum in Aux-J        ...      4
Auxiliary J/K fitting basis                 ... NOT available
Auxiliary Correlation fitting basis         ... NOT available
Auxiliary 'external' fitting basis          ... NOT available

Checking pre-screening integrals            ... done (  0.0 sec) Dimension = 29
Check shell pair data                       ... done (  0.0 sec)
Shell pair information
Shell pair cut-off parameter TPreSel        ...   1.0e-14
Total number of shell pairs                 ...       435
Shell pairs after pre-screening             ...       435
Total number of primitive shell pairs       ...      1021
Primitive shell pairs kept                  ...       991
          la=0 lb=0:    105 shell pairs
          la=1 lb=0:    126 shell pairs
          la=1 lb=1:     45 shell pairs
          la=2 lb=0:     70 shell pairs
          la=2 lb=1:     45 shell pairs
          la=2 lb=2:     15 shell pairs
          la=3 lb=0:     14 shell pairs
          la=3 lb=1:      9 shell pairs
          la=3 lb=2:      5 shell pairs
          la=3 lb=3:      1 shell pairs

Calculating one electron integrals          ... done (  0.0 sec)
Calculating RI/J V-Matrix + Cholesky decomp.... done (  0.0 sec)
Calculating Nuclear repulsion               ... done (  0.0 sec) ENN=     11.960742060581 Eh

Diagonalization of the overlap matrix:
Smallest eigenvalue                        ... 8.874e-04
Time for diagonalization                   ...    0.000 sec
Threshold for overlap eigenvalues          ... 1.000e-07
Number of eigenvalues below threshold      ... 0
Time for construction of square roots      ...    0.001 sec
Total time needed                          ...    0.006 sec

-------------------
DFT GRID GENERATION
-------------------

General Integration Accuracy     IntAcc      ... 4.388
Radial Grid Type                 RadialGrid  ... OptM3 with GC (2021)
Angular Grid (max. ang.)         AngularGrid ... 4 (Lebedev-302)
Angular grid pruning method      GridPruning ... 4 (adaptive)
Weight generation scheme         WeightScheme... mBecke (2022)
Basis function cutoff            BFCut       ... 1.0000e-12
Integration weight cutoff        WCut        ... 1.0000e-14
Partially contracted basis set               ... off
Rotationally invariant grid construction     ... off
Angular grids for H and He will be reduced by one unit

Total number of grid points                  ...    16020
Total number of batches                      ...      252
Average number of points per batch           ...       63
Average number of grid points per atom       ...     4005

--------------------
COSX GRID GENERATION
--------------------

GRIDX 1
-------
General Integration Accuracy     IntAcc      ... 3.816
Radial Grid Type                 RadialGrid  ... OptM3 with GC (2021)
Angular Grid (max. ang.)         AngularGrid ... 1 (Lebedev-50)
Angular grid pruning method      GridPruning ... 4 (adaptive)
Weight generation scheme         WeightScheme... mBecke (2022)
Basis function cutoff            BFCut       ... 1.0000e-12
Integration weight cutoff        WCut        ... 1.0000e-14
Partially contracted basis set               ... on
Rotationally invariant grid construction     ... off
Angular grids for H and He will be reduced by one unit

Total number of grid points                  ...     2101
Total number of batches                      ...       19
Average number of points per batch           ...      110
Average number of grid points per atom       ...      525
UseSFitting                                  ... on

GRIDX 2
-------
General Integration Accuracy     IntAcc      ... 4.020
Radial Grid Type                 RadialGrid  ... OptM3 with GC (2021)
Angular Grid (max. ang.)         AngularGrid ... 2 (Lebedev-110)
Angular grid pruning method      GridPruning ... 4 (adaptive)
Weight generation scheme         WeightScheme... mBecke (2022)
Basis function cutoff            BFCut       ... 1.0000e-12
[...]
INITIAL GUESS: MOREAD
---------------------
Guess MOs are being read from file: NH3_Opt_Geom-PBE0.gbw
Input Geometry matches current geometry (good)
Input basis set matches current basis set (good)
Occupation numbers will be reassigned to an Aufbau configuration
MOs were renormalized
MOs were reorthogonalized (Cholesky)
                      ------------------
                      INITIAL GUESS DONE (   0.0 sec)
                      ------------------
             **** ENERGY FILE WAS UPDATED (NH3_Opt_Geom-PBE0.en.tmp) ****
Finished Guess after   0.1 sec
Maximum memory used throughout the entire GUESS-calculation: 7.7 MB

-------------------------------------------------------------------------------------------
                                      ORCA LEAN-SCF
                              memory conserving SCF solver
-------------------------------------------------------------------------------------------

----------------------------------------D-I-I-S--------------------------------------------
Iteration    Energy (Eh)           Delta-E    RMSDP     MaxDP     DIISErr   Damp  Time(sec)
-------------------------------------------------------------------------------------------
               ***  Starting incremental Fock matrix formation  ***
                              *** Initializing SOSCF ***
---------------------------------------S-O-S-C-F--------------------------------------
Iteration    Energy (Eh)           Delta-E    RMSDP     MaxDP     MaxGrad    Time(sec)
--------------------------------------------------------------------------------------
    1    -56.5159154641035855     0.00e+00  6.65e-08  9.52e-07  2.14e-07     0.3
               *** Restarting incremental Fock matrix formation ***
    2    -56.5159154640926999     1.09e-11  7.02e-08  1.54e-06  6.55e-07     0.3
    3    -56.5159154641200843    -2.74e-11  3.76e-08  7.27e-07  8.30e-07     0.3
                 **** Energy Check signals convergence ****

               *****************************************************
               *                     SUCCESS                       *
               *           SCF CONVERGED AFTER   3 CYCLES          *
               *****************************************************

Recomputing exchange energy using gridx3       ... done (    0.255 sec)
Old exchange energy                            :     -1.916775905 Eh
New exchange energy                            :     -1.916781456 Eh
Exchange energy change after final integration :     -0.000005551 Eh
Total energy after final integration           :    -56.515921015 Eh
             **** ENERGY FILE WAS UPDATED (NH3_Opt_Geom-PBE0.en.tmp) ****

----------------
TOTAL SCF ENERGY
----------------

Total Energy       :        -56.51592101500366 Eh           -1537.87639 eV

Components:
Nuclear Repulsion  :         11.96061285949098 Eh             325.46482 eV
Electronic Energy  :        -68.47652832361106 Eh           -1863.34107 eV
One Electron Energy:        -99.72714931459520 Eh           -2713.71370 eV
Two Electron Energy:         31.25062099098412 Eh             850.37263 eV

Virial components:
Potential Energy   :       -112.77516639580989 Eh           -3068.76829 eV
Kinetic Energy     :         56.25924538080622 Eh            1530.89190 eV
Virial Ratio       :          2.00456237250358

DFT components:
N(Alpha)           :        4.999998478226 electrons
N(Beta)            :        4.999998478226 electrons
N(Total)           :        9.999996956453 electrons
E(X)               :       -5.732600564860 Eh       
E(C)               :       -0.316236377927 Eh       
E(XC)              :       -6.048836942787 Eh       

---------------
SCF CONVERGENCE
---------------

  Last Energy change         ...    2.7384e-11  Tolerance :   1.0000e-09
  Last MAX-Density change    ...    7.2735e-07  Tolerance :   1.0000e-08
  Last RMS-Density change    ...    3.7622e-08  Tolerance :   1.0000e-09
  Last DIIS Error            ...    1.9430e-06  Tolerance :   1.0000e-08
  Last Orbital Gradient      ...    8.3043e-07  Tolerance :   2.0000e-06
  Last Orbital Rotation      ...    5.5718e-07  Tolerance :   2.0000e-06


----------------
ORBITAL ENERGIES
----------------

  NO   OCC          E(Eh)            E(eV) 
   0   2.0000     -14.354562      -390.6075 
   1   2.0000      -0.874476       -23.7957 
   2   2.0000      -0.473255       -12.8779 
   3   2.0000      -0.473244       -12.8776 
   4   2.0000      -0.279328        -7.6009 
   5   0.0000       0.038133         1.0376 
   6   0.0000       0.122447         3.3320 
   7   0.0000       0.122451         3.3321 
   8   0.0000       0.312080         8.4921 
   9   0.0000       0.312084         8.4922 
  10   0.0000       0.355551         9.6750 
  11   0.0000       0.444024        12.0825 
  12   0.0000       0.493484        13.4284 
  13   0.0000       0.505964        13.7680 
  14   0.0000       0.505971        13.7682 
  15   0.0000       0.579280        15.7630 
*Only the first 10 virtual orbitals were printed.

                    ********************************
                    * MULLIKEN POPULATION ANALYSIS *
                    ********************************

-----------------------
MULLIKEN ATOMIC CHARGES
-----------------------
   0 N :   -0.483526
   1 H :    0.161135
   2 H :    0.161196
   3 H :    0.161196
Sum of atomic charges:   -0.0000000

--------------------------------
MULLIKEN REDUCED ORBITAL CHARGES
--------------------------------
  0 N s       :     3.514853  s :     3.514853
      pz      :     1.742172  p :     3.947153
      px      :     1.102461
      py      :     1.102520
      dz2     :     0.001544  d :     0.020967
      dxz     :     0.006932
      dyz     :     0.006937
      dx2y2   :     0.002775
      dxy     :     0.002778
      f0      :     0.000373  f :     0.000552
      f+1     :     0.000076
      f-1     :     0.000076
      f+2     :    -0.000061
      f-2     :    -0.000061
      f+3     :     0.000000
      f-3     :     0.000150

  1 H s       :     0.768185  s :     0.768185
      pz      :     0.032017  p :     0.065901
      px      :     0.016210
      py      :     0.017674
      dz2     :     0.000672  d :     0.004780
      dxz     :     0.000098
      dyz     :     0.002083
      dx2y2   :     0.000666
      dxy     :     0.001260

  2 H s       :     0.768140  s :     0.768140
      pz      :     0.032010  p :     0.065885
      px      :     0.017302
      py      :     0.016572
      dz2     :     0.000673  d :     0.004780
      dxz     :     0.001586
      dyz     :     0.000594
      dx2y2   :     0.001112
      dxy     :     0.000815

  3 H s       :     0.768140  s :     0.768140
      pz      :     0.032010  p :     0.065885
      px      :     0.017302
      py      :     0.016572
      dz2     :     0.000673  d :     0.004780
      dxz     :     0.001586
      dyz     :     0.000594
      dx2y2   :     0.001112
      dxy     :     0.000815



                     *******************************
                     * LOEWDIN POPULATION ANALYSIS *
                     *******************************

----------------------
LOEWDIN ATOMIC CHARGES
----------------------
   0 N :    0.180593
   1 H :   -0.060206
   2 H :   -0.060193
   3 H :   -0.060193

-------------------------------
LOEWDIN REDUCED ORBITAL CHARGES
-------------------------------
  0 N s       :     2.952397  s :     2.952397
      pz      :     1.516473  p :     3.773287
      px      :     1.128399
      py      :     1.128414
      dz2     :     0.004435  d :     0.086064
      dxz     :     0.015252
      dyz     :     0.015254
      dx2y2   :     0.025560
      dxy     :     0.025563
      f0      :     0.000540  f :     0.007659
      f+1     :     0.000003
      f-1     :     0.000003
      f+2     :     0.002481
      f-2     :     0.002481
      f+3     :     0.000000
      f-3     :     0.002153

  1 H s       :     0.745225  s :     0.745225
      pz      :     0.110480  p :     0.257199
      px      :     0.052965
      py      :     0.093754
      dz2     :     0.008668  d :     0.057782
      dxz     :     0.001679
      dyz     :     0.020546
      dx2y2   :     0.011574
      dxy     :     0.015315

  2 H s       :     0.745221  s :     0.745221
      pz      :     0.110478  p :     0.257193
      px      :     0.083556
      py      :     0.063159
      dz2     :     0.008668  d :     0.057779
      dxz     :     0.015828
      dyz     :     0.006396
      dx2y2   :     0.014379
      dxy     :     0.012509

  3 H s       :     0.745221  s :     0.745221
      pz      :     0.110478  p :     0.257193
      px      :     0.083556
      py      :     0.063159
      dz2     :     0.008668  d :     0.057779
      dxz     :     0.015828
      dyz     :     0.006396
      dx2y2   :     0.014379
      dxy     :     0.012509



                      *****************************
                      * MAYER POPULATION ANALYSIS *
                      *****************************

  NA   - Mulliken gross atomic population
  ZA   - Total nuclear charge
  QA   - Mulliken gross atomic charge
  VA   - Mayer's total valence
  BVA  - Mayer's bonded valence
  FA   - Mayer's free valence

  ATOM       NA         ZA         QA         VA         BVA        FA
  0 N      7.4835     7.0000    -0.4835     3.0045     3.0045    -0.0000
  1 H      0.8389     1.0000     0.1611     1.0242     1.0242    -0.0000
  2 H      0.8388     1.0000     0.1612     1.0242     1.0242    -0.0000
  3 H      0.8388     1.0000     0.1612     1.0242     1.0242     0.0000

  Mayer bond orders larger than 0.100000
B(  0-N ,  1-H ) :   1.0015 B(  0-N ,  2-H ) :   1.0015 B(  0-N ,  3-H ) :   1.0015 


-------
TIMINGS
-------

Total SCF time: 0 days 0 hours 0 min 1 sec 

Total time                  ....       1.237 sec
Sum of individual times     ....       1.200 sec  ( 97.0%)

SCF preparation             ....       0.062 sec  (  5.0%)
Fock matrix formation       ....       0.908 sec  ( 73.4%)
  Startup                   ....       0.016 sec  (  1.8% of F)
  Split-RI-J                ....       0.025 sec  (  2.8% of F)
  Chain of spheres X        ....       0.678 sec  ( 74.7% of F)
  XC integration            ....       0.177 sec  ( 19.5% of F)
    Basis function eval.    ....       0.048 sec  ( 27.1% of XC)
    Density eval.           ....       0.033 sec  ( 18.6% of XC)
    XC-Functional eval.     ....       0.013 sec  (  7.3% of XC)
    XC-Potential eval.      ....       0.067 sec  ( 37.9% of XC)
Diagonalization             ....       0.000 sec  (  0.0%)
Density matrix formation    ....       0.044 sec  (  3.6%)
Total Energy calculation    ....       0.024 sec  (  1.9%)
Population analysis         ....       0.063 sec  (  5.1%)
Orbital Transformation      ....       0.011 sec  (  0.9%)
Orbital Orthonormalization  ....       0.000 sec  (  0.0%)
DIIS solution               ....       0.029 sec  (  2.3%)
SOSCF solution              ....       0.059 sec  (  4.8%)
Finished LeanSCF after   1.3 sec

Maximum memory used throughout the entire LEANSCF-calculation: 7.6 MB

-------------------------   --------------------
FINAL SINGLE POINT ENERGY       -56.515921015004
-------------------------   --------------------

                                *** OPTIMIZATION RUN DONE ***


------------------------------------------------------------------------------
                              ORCA PROPERTY CALCULATIONS
------------------------------------------------------------------------------

GBWName                                 ... NH3_Opt_Geom-PBE0.gbw
Number of atoms                         ...      4
Number of basis functions               ...     73
Max core memory                         ...   4000 MB

Electric properties:
Dipole moment                           ... YES
Quadrupole moment                       ...  NO
Static polarizability (Dipole/Dipole)   ...  NO
Static polarizability (Dipole/Quad.)    ...  NO
Static polarizability (Quad./Quad.)     ...  NO
Static polarizability (Velocity)        ...  NO

Atomic electric properties:
Dipole moment                           ...  NO
Quadrupole moment                       ...  NO
Static polarizability                   ...  NO

Choice of electric origin               ... Center of mass
Position of electric origin             ...    -0.000000     0.000013     0.088041

General magnetic properties:
Magnetizability                         ...  NO

EPR properties:
g-Tensor (aka g-matrix)                 ...  NO
Zero-Field splitting spin-orbit         ...  NO
Zero-field splitting spin-spin          ...  NO
Hyperfine couplings                     ...  NO (   0 nuclei)
Quadrupole couplings                    ...  NO (   0 nuclei)
Contact density                         ...  NO (   0 nuclei)

NMR properties:
Chemical shifts                         ...  NO (   0 nuclei)
Spin-rotation constants                 ...  NO (   0 nuclei)
Spin-spin couplings                     ...  NO (   0 nuclei,    0 pairs)

Choice of magnetic origin               ... GIAO
Position of magnetic origin             ...     0.000000     0.000000     0.000000

Properties with geometric perturbations:
SCF Hessian                             ...  NO
IR spectrum                             ...  NO
VCD spectrum                            ...  NO
X-ray spectroscopy properties:
SCF XES/XAS/RIXS spectra                ...  NO


-------------
DIPOLE MOMENT
-------------

Method             : SCF
Type of density    : Electron Density
Multiplicity       :   1
Irrep              :   0
Energy             :   -56.5159210150036628 Eh
Relativity type    : 
Basis              : AO
                                X                 Y                 Z
Electronic contribution:     -0.000000015       0.000039971       0.240999868
Nuclear contribution   :      0.000000003      -0.000028726      -0.877158488
                        -----------------------------------------
Total Dipole Moment    :     -0.000000012       0.000011245      -0.636158620
                        -----------------------------------------
Magnitude (a.u.)       :      0.636158620
Magnitude (Debye)      :      1.616986709



--------------------
Rotational spectrum 
--------------------
 
Rotational constants in cm-1:             9.987370             9.987203             6.335162 
Rotational constants in MHz :        299413.816310        299408.825657        189923.377968 

Dipole components along the rotational axes: 
x,y,z [a.u.] :     0.000001    -0.000000    -0.636159 
x,y,z [Debye]:     0.000003    -0.000000    -1.616987 

 

Dipole moment calculation done in   0.0 sec 

Maximum memory used throughout the entire PROP-calculation: 4.9 MB

--------------------------------
SUGGESTED CITATIONS FOR THIS RUN
--------------------------------

Below you find a list of papers that are relevant to this ORCA run
We neither can nor want to force you to cite these papers, but we appreciate if you do
You receive ORCA, which is the product of decades of hard work by many enthusiastic individuals, for free
The only thing we kindly ask in return is that you cite our papers,
We deeply appreciate it, if you show your appreciation for ORCA by not just citing the generic ORCA reference.

Please note that relegating all ORCA citations to the supporting information does *not* help us.
SI sections are not indexed - citations you put there will not count into any citation statistics
But we need these citations in order to attract the funding resources that allow us to do what we are doing

Therefore, if you are a happy ORCA user, please consider citing a few of the papers listed below in the main body of your paper

In addition to the list printed below, the program has created the file NH3_Opt_Geom-PBE0.bibtex that contains the list in bibtex format
You can import this file easily into all common literature databanks and citation aid programs


List of essential papers. We consider these as the minimum necessary citations

  1. Neese,F.
     Software update: the ORCA program system, version 5.0
     WIRES Comput. Molec. Sci., 2022 12(1)e1606
     doi.org/10.1002/wcms.1606

List of papers to cite with high priority. The work reported in these papers was absolutely
necessary for this run to complete.
Our perspective: the developers of density functionals and basis sets usually get cited in chemistry papers
Good! But without the algorithms to do something with them, the functionals or basis sets would not do anything.
Hence, in our opinion, the algorithm design and method developments papers are equally worthy of getting cited

  1. Neese,F.
     An improvement of the resolution of the identity approximation for the formation of the Coulomb matrix
     J. Comp. Chem., 2003 24(14)1740-1747
     doi.org/10.1002/jcc.10318
  2. Neese,F.; Wennmohs,F.; Hansen,A.; Becker,U.
     Efficient, approximate and parallel Hartree-Fock and hybrid DFT calculations. A 'chain-of-spheres' algorithm for the Hartree-Fock exchange
     Chem. Phys., 2009 356(1-3)98-109
     doi.org/10.1016/j.chemphys.2008.10.036
  3. Helmich-Paris,B.; de Souza,B.; Neese,F.; Izsák,R.
     An improved chain of spheres for exchange algorithm
     J. Chem. Phys., 2021 155 104109
     doi.org/doi: 10.1063/5.0058766.
  4. Neese,F.
     The SHARK Integral Generation and Digestion System
     J. Comp. Chem., 2022  1-16
     doi.org/10.1002/jcc.26942

List of suggested additional citations. These are papers that are important in the 'surrounding' of 
of this run, or papers that preceded the highly important papers. If you like your results we are grateful for a citation.

  1. Izsak,R.; Neese,F.
     An overlap fitted chain of spheres exchange method
     J. Chem. Phys., 2011 135 144105
     doi.org/10.1063/1.3646921
  2. Izsak,R.; Hansen,A.; Neese,F.
     The resolution of identity and chain of spheres approximations for the LPNO-CCSD singles Fock term
     Molec. Phys., 2012 110 2413-2417
     doi.org/10.1080/00268976.2012.687466
  3. Neese,F.
     The ORCA program system
     WIRES Comput. Molec. Sci., 2012 2(1)73-78
     doi.org/10.1002/wcms.81
  4. Izsak,R.; Neese,F.; Klopper,W.
     Robust fitting techniques in the chain of spheres approximation to the Fock exchange: The role of the complementary space
     J. Chem. Phys., 2013 139 
     doi.org/10.1063/1.4819264
  5. Neese,F.
     Software update: the ORCA program system, version 4.0
     WIRES Comput. Molec. Sci., 2018 8(1)1-6
     doi.org/10.1002/wcms.1327
  6. Neese,F.; Wennmohs,F.; Becker,U.; Riplinger,C.
     The ORCA quantum chemistry program package
     J. Chem. Phys., 2020 152 Art. No. L224108
     doi.org/10.1063/5.0004608

List of optional additional citations

  1. Neese,F.
     Approximate second-order SCF convergence for spin unrestricted wavefunctions
     Chem. Phys. Lett., 2000 325(1-3)93-98
     doi.org/10.1016/s0009-2614(00)00662-x

Timings for individual modules:

Sum of individual times          ...       19.637 sec (=   0.327 min)
Startup calculation              ...        1.325 sec (=   0.022 min)   6.7 %
SCF iterations                   ...        9.548 sec (=   0.159 min)  48.6 %
Property calculations            ...        0.060 sec (=   0.001 min)   0.3 %
SCF Gradient evaluation          ...        8.652 sec (=   0.144 min)  44.1 %
Geometry relaxation              ...        0.052 sec (=   0.001 min)   0.3 %
                             ****ORCA TERMINATED NORMALLY****
TOTAL RUN TIME: 0 days 0 hours 0 minutes 20 seconds 9 msec
