
                                 *****************
                                 * O   R   C   A *
                                 *****************

                                            #,                                       
                                            ###                                      
                                            ####                                     
                                            #####                                    
                                            ######                                   
                                           ########,                                 
                                     ,,################,,,,,                         
                               ,,#################################,,                 
                          ,,##########################################,,             
                       ,#########################################, ''#####,          
                    ,#############################################,,   '####,        
                  ,##################################################,,,,####,       
                ,###########''''           ''''###############################       
              ,#####''   ,,,,##########,,,,          '''####'''          '####       
            ,##' ,,,,###########################,,,                        '##       
           ' ,,###''''                  '''############,,,                           
         ,,##''                                '''############,,,,        ,,,,,,###''
      ,#''                                            '''#######################'''  
     '                                                          ''''####''''         
             ,#######,   #######,   ,#######,      ##                                
            ,#'     '#,  ##    ##  ,#'     '#,    #''#        ,####,   ,####,        
            ##       ##  ##   ,#'  ##            #'  '#       #'       #'  '#        
            ##       ##  #######   ##           ,######,      #####,   #    #        
            '#,     ,#'  ##    ##  '#,     ,#' ,#      #,     #,   #   #,  ,#        
             '#######'   ##     ##  '#######'  #'      '#     '####' # '####'        



                #########################################################
                #                        -***-                          #
                #          Department of theory and spectroscopy        #
                #                                                       #
                #                      Frank Neese                      #
                #                                                       #
                #     Directorship, Architecture, Infrastructure        #
                #                    SHARK, DRIVERS                     #
                #        Core code/Algorithms in most modules           #
                #                                                       #
                #        Max Planck Institute fuer Kohlenforschung      #
                #                Kaiser Wilhelm Platz 1                 #
                #                 D-45470 Muelheim/Ruhr                 #
                #                      Germany                          #
                #                                                       #
                #                  All rights reserved                  #
                #                        -***-                          #
                #########################################################


                         Program Version 6.0.1  -  RELEASE   -


 With contributions from (in alphabetic order):
[Max-Planck-Institut fuer Kohlenforschung]                               
  Daniel Aravena         : Magnetic Suceptibility                        
  Michael Atanasov       : Ab Initio Ligand Field Theory (pilot matlab implementation)
  Alexander A. Auer      : GIAO ZORA, VPT2 properties, NMR spectrum      
  Ute Becker             : All parallelization in ORCA, NUMFREQ, NUMCALC 
  Giovanni Bistoni       : ED, misc. LED, open-shell LED, HFLD           
  Martin Brehm           : Molecular dynamics                            
  Dmytro Bykov           : pre 5.0 version of the SCF Hessian            
  Marcos Casanova-Páez   : Triplet and SCS-CIS(D). UHF-(DLPNO)-IP/EA/STEOM-CCSD. UHF-CVS-IP/STEOM-CCSD   
  Vijay G. Chilkuri      : MRCI spin determinant printing, contributions to CSF-ICE 
  Pauline Colinet        : FMM embedding                                 
  Dipayan Datta          : RHF DLPNO-CCSD density                        
  Achintya Kumar Dutta   : EOM-CC, STEOM-CC                              
  Nicolas Foglia         : Exact transition moments, OPA infrastructure, MCD improvements    
  Dmitry Ganyushin       : Spin-Orbit,Spin-Spin,Magnetic field MRCI      
  Miquel Garcia-Rates    : C-PCM and meta-GGA Hessian, CCSD/C-PCM, Gaussian charge scheme 
  Tiago L. C. Gouveia    : GS-ROHF, GS-ROCIS                             
  Yang Guo               : DLPNO-NEVPT2, F12-NEVPT2, CIM, IAO-localization        
  Andreas Hansen         : Spin unrestricted coupled pair/coupled cluster methods 
  Ingolf Harden          : AUTO-CI MPn and infrastructure                
  Benjamin Helmich-Paris : MC-RPA, TRAH-(SCF,CASSCF), AVAS, COSX integrals, SCF dyn. polar. 
  Lee Huntington         : MR-EOM, pCC                                   
  Robert Izsak           : Overlap fitted RIJCOSX, COSX-SCS-MP3, EOM     
  Riya Kayal             : Wick's Theorem for AUTO-CI, AUTO-CI UHF-CCSDT 
  Emily Kempfer          : AUTO-CI, RHF CISDT and CCSDT                  
  Christian Kollmar      : KDIIS, OOCD, Brueckner-CCSD(T), CCSD density, CASPT2, CASPT2-K, improved NEVPT2 
  Axel Koslowski         : Symmetry handling                             
  Simone Kossmann        : meta-GGA functionals, TD-DFT gradient, OOMP2, (MP2 Hessian; deprecated post 5.0) 
  Lucas Lang             : DCDCAS                                        
  Marvin Lechner         : AUTO-CI (C++ implementation), FIC-MRCC        
  Spencer Leger          : CASSCF response                               
  Dagmar Lenk            : GEPOL surface, SMD, ORCA-2-JSON               
  Dimitrios Liakos       : Extrapolation schemes; Compound Job, initial MDCI parallelization 
  Dimitrios Manganas     : Further ROCIS development; embedding schemes. LFT, Crystal Embedding 
  Dimitrios Pantazis     : SARC Basis sets                               
  Anastasios Papadopoulos: AUTO-CI, single reference methods and gradients 
  Taras Petrenko         : pre 6.0 DFT Hessian and TD-DFT gradient, (ASA, deprecated), ECA, 1-Electron XAS/XES, NRVS 
  Peter Pinski           : DLPNO-MP2, DLPNO-MP2 Gradient                 
  Christoph Reimann      : Effective Core Potentials                     
  Marius Retegan         : Local ZFS, SOC                                
  Christoph Riplinger    : Optimizer, TS searches, QM/MM, DLPNO-CCSD(T), (RO)-DLPNO pert. Triples 
  Michael Roemelt        : Original ROCIS implementation                 
  Masaaki Saitow         : Open-shell DLPNO-CCSD energy and density      
  Barbara Sandhoefer     : DKH picture change effects                    
  Kantharuban Sivalingam : CASSCF convergence/infrastructure, NEVPT2 and variants, FIC-MRCI 
  Bernardo de Souza      : ESD, SOC TD-DFT                               
  Georgi L. Stoychev     : AutoAux, RI-MP2 NMR, DLPNO-MP2 response, X2C  
  Van Anh Tran           : RI-MP2 g-tensors                              
  Willem Van den Heuvel  : Paramagnetic NMR                              
  Zikuan Wang            : NOTCH, Electric field optimization            
  Frank Wennmohs         : Technical directorship and infrastructure     
  Hang Xu                : AUTO-CI-Response properties                   
                                                                         
[FACCTs GmbH]                                                            
  Markus Bursch, Miquel Garcia-Rates, Christoph Riplinger, Bernardo de Souza, Georgi L. Stoychev 
                                                                 
  APM, Basis sets (HGBS, AHGBS, def-TZVP (Ac-Lr), def2-XVPD (La-Lu)), CI-OPT, improved COSX, DLPNO-Multilevel,           
  DOCKER, DRACO, updates on ESD, GOAT, IRC, LR-CPCM, MBIS, meta-GGA TD-DFT gradient, ML-optimized integration grids, 
  MM, NACMEs, nearIR, NEB, NEB-TS, NL-DFT gradient (VV10), 2- and 3-layer-ONIOM, interface openCOSMO-RS, QMMM,   
  Crystal-QMMM, SF, symmetry and pop. for TD-DFT, r2SCAN hybrids, SOLVATOR                                   
                                                                         
[Other institutions]                                                     
  V. Asgeirsson          : NEB                                           
  Christoph Bannwarth    : sTDA-DFT, sTD-DFT, PBEh-3c, B97-3c, D3        
  Sebastian Ehlert       : rSCAN, r2SCAN, r2SCAN-3c, D4, dhf basis sets  
  Marvin Friede          : D4 for Fr, Ra, Ac-Lr                          
  Lars Goerigk           : TD-DFT with DH, B97 family of functionals     
  Stefan Grimme          : VdW corrections, initial TS optimization, DFT functionals, gCP, sTDA/sTD-DF 
  Waldemar Hujo          : DFT-NL                                        
  H. Jonsson             : NEB                                           
  Holger Kruse           : gCP                                           
  Marcel Mueller         : wB97X-3c, vDZP basis set                      
  Hagen Neugebauer       : wr2SCAN                                       
  Tobias Risthaus        : range-separated hybrid DFT                    
  Lukas Wittmann         : regularized MP2, r2SCAN double-hybrids, wr2SCAN        
                                                                         
We gratefully acknowledge several colleagues who have allowed us to      
interface, adapt or use parts of their codes:                            
  Ed Valeev, F. Pavosevic, A. Kumar             : LibInt (2-el integral package), F12 methods 
  Garnet Chan, S. Sharma, J. Yang, R. Olivares  : DMRG                   
  Ulf Ekstrom                                   : XCFun DFT Library      
  Mihaly Kallay                                 : mrcc  (arbitrary order and MRCC methods)
  Frank Weinhold                                : gennbo (NPA and NBO analysis)           
  Simon Mueller                                 : openCOSMO-RS                            
  Christopher J. Cramer and Donald G. Truhlar   : smd solvation model                     
  S Lehtola, MJT Oliveira, MAL Marques          : LibXC Library                           
  Liviu Ungur et al                             : ANISO software                          


 Your calculation uses the libint2 library for the computation of 2-el integrals
 For citations please refer to: http://libint.valeyev.net

 Your ORCA version has been built with support for libXC version: 6.2.2
 For citations please refer to: https://libxc.gitlab.io

 This ORCA versions uses:
   CBLAS   interface :  Fast vector & matrix operations
   LAPACKE interface :  Fast linear algebra routines
   Shared memory     :  Shared parallel matrices


NOTE: MaxCore=4000 MB was set to SCF,MP2,MDCI,CIPSI,MRCI and CIS
      => If you want to overwrite this, your respective input block should be placed after the MaxCore statement
Warning: RI is on but no J-basis has been assigned. Assigning Def2/J (nothing to worry about!)
================================================================================

----- Orbital basis set information -----
Your calculation utilizes the basis: def2-TZVPP
   F. Weigend and R. Ahlrichs, Phys. Chem. Chem. Phys. 7, 3297 (2005).

----- AuxJ basis set information -----
Your calculation utilizes the auxiliary basis: def2/J
   F. Weigend, Phys. Chem. Chem. Phys. 8, 1057 (2006).

================================================================================
                                        WARNINGS
                       Please study these warnings very carefully!
================================================================================


WARNING: Geometry Optimization
  ===> : Switching off AutoStart
         For restart on a previous wavefunction, please use MOREAD

================================================================================
                                       INPUT FILE
================================================================================
NAME = NH3_Opt_Geom-LDA.inp
|  1> ! LDA def2-TZVPP Opt TightOpt VeryTightSCF
|  2> 
|  3> %scf
|  4>    MaxIter 400          # Máximo de iteraciones permitidas para el SCF
|  5> end
|  6> 
|  7> %geom
|  8>    TolRMSD 1.0e-5
|  9>    TolMAXD 1.0e-4
| 10>    TolRMSG 1.0e-5
| 11>    TolMAXG 1.0e-4
| 12> end
| 13> 
| 14> %pal
| 15>    nprocs 1
| 16> end
| 17> 
| 18> 
| 19> %MaxCore 4000            # Memoria máxima por núcleo (en MB)
| 20> 
| 21> * xyz 0 1
| 22> N       0.00000000    0.00000000    0.11361500
| 23> H       0.00000000    0.93799100   -0.26510100
| 24> H      -0.81232400   -0.46899600   -0.26510100
| 25> H       0.81232400   -0.46899600   -0.26510100
| 26> **                         ****END OF INPUT****
================================================================================

                       *****************************
                       * Geometry Optimization Run *
                       *****************************

Geometry optimization settings:
Update method            Update   .... BFGS
Choice of coordinates    CoordSys .... (2022) Redundant Internals
Initial Hessian          InHess   .... Almloef's Model
Max. no of cycles        MaxIter  .... 50

Convergence Tolerances:
Energy Change            TolE     ....  1.0000e-06 Eh
Max. Gradient            TolMAXG  ....  1.0000e-04 Eh/bohr
RMS Gradient             TolRMSG  ....  1.0000e-05 Eh/bohr
Max. Displacement        TolMAXD  ....  1.0000e-04 bohr
RMS Displacement         TolRMSD  ....  1.0000e-05 bohr
Strict Convergence                .... False

------------------------------------------------------------------------------
                        ORCA OPTIMIZATION COORDINATE SETUP
------------------------------------------------------------------------------

The optimization will be done in redundant internal coordinates (2022)
Making redundant internal coordinates   ...  (2022 redundants) done
Evaluating the initial hessian          ...  (Almloef) done
Evaluating the coordinates              ...  done
Calculating the B-matrix                .... done
Calculating the G-matrix                .... done
Diagonalizing the G-matrix              .... done
The first mode is                       ....    1
The number of degrees of freedom        ....    6

    -----------------------------------------------------------------
                    Redundant Internal Coordinates


    -----------------------------------------------------------------
         Definition                    Initial Value    Approx d2E/dq
    -----------------------------------------------------------------
      1. B(H   1,N   0)                  1.0116         0.430236   
      2. B(H   2,N   0)                  1.0116         0.430236   
      3. B(H   3,N   0)                  1.0116         0.430236   
      4. A(H   1,N   0,H   3)          106.8430         0.302702   
      5. A(H   2,N   0,H   3)          106.8430         0.302702   
      6. A(H   1,N   0,H   2)          106.8430         0.302702   
      7. I(H   1,H   3,H   2,N   0)     60.9075         0.003864   
    -----------------------------------------------------------------

Number of atoms                         .... 4
Number of degrees of freedom            .... 7


         *************************************************************
         *                GEOMETRY OPTIMIZATION CYCLE   1            *
         *************************************************************
---------------------------------
CARTESIAN COORDINATES (ANGSTROEM)
---------------------------------
  N      0.000000    0.000000    0.113615
  H      0.000000    0.937991   -0.265101
  H     -0.812324   -0.468996   -0.265101
  H      0.812324   -0.468996   -0.265101

----------------------------
CARTESIAN COORDINATES (A.U.)
----------------------------
  NO LB      ZA    FRAG     MASS         X           Y           Z
   0 N     7.0000    0    14.007    0.000000    0.000000    0.214701
   1 H     1.0000    0     1.008    0.000000    1.772546   -0.500968
   2 H     1.0000    0     1.008   -1.535070   -0.886274   -0.500968
   3 H     1.0000    0     1.008    1.535070   -0.886274   -0.500968

--------------------------------
INTERNAL COORDINATES (ANGSTROEM)
--------------------------------
 N      0   0   0     0.000000000000     0.00000000     0.00000000
 H      1   0   0     1.011559649619     0.00000000     0.00000000
 H      1   2   0     1.011559853715   106.84302597     0.00000000
 H      1   2   3     1.011559853715   106.84302597   114.07643751

---------------------------
INTERNAL COORDINATES (A.U.)
---------------------------
 N      0   0   0     0.000000000000     0.00000000     0.00000000
 H      1   0   0     1.911570705905     0.00000000     0.00000000
 H      1   2   0     1.911571091591   106.84302597     0.00000000
 H      1   2   3     1.911571091591   106.84302597   114.07643751

---------------------
BASIS SET INFORMATION
---------------------
There are 2 groups of distinct atoms

 Group   1 Type N   : 11s6p2d1f contracted to 5s3p2d1f pattern {62111/411/11/1}
 Group   2 Type H   : 5s2p1d contracted to 3s2p1d pattern {311/11/1}

Atom   0N    basis set group =>   1
Atom   1H    basis set group =>   2
Atom   2H    basis set group =>   2
Atom   3H    basis set group =>   2
---------------------------------
AUXILIARY/J BASIS SET INFORMATION
---------------------------------
There are 2 groups of distinct atoms

 Group   1 Type N   : 12s5p4d2f1g contracted to 6s4p3d1f1g pattern {711111/2111/211/2/1}
 Group   2 Type H   : 5s2p1d contracted to 3s1p1d pattern {311/2/1}

Atom   0N    basis set group =>   1
Atom   1H    basis set group =>   2
Atom   2H    basis set group =>   2
Atom   3H    basis set group =>   2
------------------------------------------------------------------------------
                             ORCA STARTUP CALCULATIONS
                           -- RI-GTO INTEGRALS CHOSEN --
------------------------------------------------------------------------------
------------------------------------------------------------------------------
                   ___                                                        
                  /   \      - P O W E R E D   B Y -                         
                 /     \                                                     
                 |  |  |   _    _      __       _____    __    __             
                 |  |  |  | |  | |    /  \     |  _  \  |  |  /  |          
                  \  \/   | |  | |   /    \    | | | |  |  | /  /          
                 / \  \   | |__| |  /  /\  \   | |_| |  |  |/  /          
                |  |  |   |  __  | /  /__\  \  |    /   |      \           
                |  |  |   | |  | | |   __   |  |    \   |  |\   \          
                \     /   | |  | | |  |  |  |  | |\  \  |  | \   \       
                 \___/    |_|  |_| |__|  |__|  |_| \__\ |__|  \__/        
                                                                              
                      - O R C A' S   B I G   F R I E N D -                    
                                      &                                       
                       - I N T E G R A L  F E E D E R -                       
                                                                              
 v1 FN, 2020, v2 2021, v3 2022-2024                                           
------------------------------------------------------------------------------


----------------------
SHARK INTEGRAL PACKAGE
----------------------

Number of atoms                             ...      4
Number of basis functions                   ...     73
Number of shells                            ...     29
Maximum angular momentum                    ...      3
Integral batch strategy                     ... SHARK/LIBINT Hybrid
RI-J (if used) integral strategy            ... SPLIT-RIJ (Revised 2003 algorithm where possible)
Printlevel                                  ...      1
Contraction scheme used                     ... SEGMENTED contraction
Prescreening option                         ... SCHWARTZ
   Thresh                                   ... 1.000e-12
   Tcut                                     ... 1.000e-14
   Tpresel                                  ... 1.000e-14 
Coulomb Range Separation                    ... NOT USED
Exchange Range Separation                   ... NOT USED
Multipole approximations                    ... NOT USED
Finite Nucleus Model                        ... NOT USED
CABS basis                                  ... NOT available
Auxiliary Coulomb fitting basis             ... AVAILABLE
   # of basis functions in Aux-J            ...     82
   # of shells in Aux-J                     ...     30
   Maximum angular momentum in Aux-J        ...      4
Auxiliary J/K fitting basis                 ... NOT available
Auxiliary Correlation fitting basis         ... NOT available
Auxiliary 'external' fitting basis          ... NOT available

Checking pre-screening integrals            ... done (  0.0 sec) Dimension = 29
Check shell pair data                       ... done (  0.0 sec)
Shell pair information
Shell pair cut-off parameter TPreSel        ...   1.0e-14
Total number of shell pairs                 ...       435
Shell pairs after pre-screening             ...       435
Total number of primitive shell pairs       ...      1021
Primitive shell pairs kept                  ...       991
          la=0 lb=0:    105 shell pairs
          la=1 lb=0:    126 shell pairs
          la=1 lb=1:     45 shell pairs
          la=2 lb=0:     70 shell pairs
          la=2 lb=1:     45 shell pairs
          la=2 lb=2:     15 shell pairs
          la=3 lb=0:     14 shell pairs
          la=3 lb=1:      9 shell pairs
          la=3 lb=2:      5 shell pairs
          la=3 lb=3:      1 shell pairs

Calculating one electron integrals          ... done (  0.0 sec)
Calculating RI/J V-Matrix + Cholesky decomp.... done (  0.0 sec)
Calculating Nuclear repulsion               ... done (  0.0 sec) ENN=     11.962882715546 Eh

Diagonalization of the overlap matrix:
Smallest eigenvalue                        ... 8.866e-04
Time for diagonalization                   ...    0.001 sec
Threshold for overlap eigenvalues          ... 1.000e-07
Number of eigenvalues below threshold      ... 0
Time for construction of square roots      ...    0.001 sec
Total time needed                          ...    0.007 sec

-------------------
DFT GRID GENERATION
-------------------

General Integration Accuracy     IntAcc      ... 4.388
Radial Grid Type                 RadialGrid  ... OptM3 with GC (2021)
Angular Grid (max. ang.)         AngularGrid ... 4 (Lebedev-302)
Angular grid pruning method      GridPruning ... 4 (adaptive)
Weight generation scheme         WeightScheme... mBecke (2022)
Basis function cutoff            BFCut       ... 1.0000e-12
Integration weight cutoff        WCut        ... 1.0000e-14
Partially contracted basis set               ... off
Rotationally invariant grid construction     ... off
Angular grids for H and He will be reduced by one unit

Total number of grid points                  ...    16020
Total number of batches                      ...      252
Average number of points per batch           ...       63
Average number of grid points per atom       ...     4005
Initializing property integral containers    ... done (  0.0 sec)

SHARK setup successfully completed in   0.1 seconds

Maximum memory used throughout the entire STARTUP-calculation: 13.7 MB
-------------------------------------------------------------------------------
                                 ORCA GUESS
                   Start orbitals & Density for SCF / CASSCF
-------------------------------------------------------------------------------

------------
SCF SETTINGS
------------
Hamiltonian:
 Density Functional     Method          .... DFT(GTOs)
 Exchange Functional    Exchange        .... Slater
   X-Alpha parameter    XAlpha          ....  0.666667
 Correlation Functional Correlation     .... VWN-5
 Gradients option       PostSCFGGA      .... off
 RI-approximation to the Coulomb term is turned on
   Number of AuxJ basis functions       .... 82


General Settings:
 Integral files         IntName         .... NH3_Opt_Geom-LDA
 Hartree-Fock type      HFTyp           .... RHF
 Total Charge           Charge          ....    0
 Multiplicity           Mult            ....    1
 Number of Electrons    NEL             ....   10
 Basis Dimension        Dim             ....   73
 Nuclear Repulsion      ENuc            ....     11.9628827155 Eh

Convergence Acceleration:
 AO-DIIS                CNVDIIS         .... on
   Start iteration      DIISMaxIt       ....    12
   Startup error        DIISStart       ....  0.200000
   # of expansion vecs  DIISMaxEq       ....     5
   Bias factor          DIISBfac        ....   1.050
   Max. coefficient     DIISMaxC        ....  10.000
 MO-DIIS                CNVKDIIS        .... off
 Trust-Rad. Augm. Hess. CNVTRAH         .... auto
   Auto Start mean grad. ratio tolernc. ....  1.125000
   Auto Start start iteration           ....    50
   Auto Start num. interpolation iter.  ....    10
   Max. Number of Micro iterations      ....    24
   Max. Number of Macro iterations      .... Maxiter - #DIIS iter
   Number of Davidson start vectors     ....     2
   Converg. threshold    (grad. norm)   ....   2.000e-06
   Grad. Scal. Fac. for Micro threshold ....   0.100
   Minimum threshold for Micro iter.    ....   1.000e-02
   NR start threshold (gradient norm)   ....   1.000e-04
   Initial trust radius                 ....   0.400
   Minimum AH scaling param. (alpha)    ....   1.000
   Maximum AH scaling param. (alpha)    .... 1000.000
   Quad. conv. algorithm                .... NR
   White noise on init. David. guess    .... on
   Maximum white noise                  ....   0.010
   Pseudo random numbers                .... off
   Inactive MOs                         .... canonical
   Orbital update algorithm             .... Taylor
   Preconditioner                       .... Diag
   Full preconditioner red. dimension   ....   250
 SOSCF                  CNVSOSCF        .... on
   Start iteration      SOSCFMaxIt      ....   150
   Startup grad/error   SOSCFStart      ....  0.003300
   Hessian update       SOSCFHessUp     .... L-BFGS
 Level Shifting         CNVShift        .... on
   Level shift para.    LevelShift      ....    0.2500
   Turn off err/grad.   ShiftErr        ....    0.0010
 Zerner damping         CNVZerner       .... off
 Static damping         CNVDamp         .... on
   Fraction old density DampFac         ....    0.7000
   Max. Damping (<1)    DampMax         ....    0.9800
   Min. Damping (>=0)   DampMin         ....    0.0000
   Turn off err/grad.   DampErr         ....    0.1000

SCF Procedure:
 Maximum # iterations   MaxIter         ....   400
 SCF integral mode      SCFMode         .... Direct
   Integral package                     .... SHARK and LIBINT hybrid scheme
 Reset frequency        DirectResetFreq ....    20
 Integral Threshold     Thresh          ....  1.000e-12 Eh
 Primitive CutOff       TCut            ....  1.000e-14 Eh

Convergence Tolerance:
 Convergence Check Mode ConvCheckMode   .... Total+1el-Energy
 Convergence forced     ConvForced      .... 0
 Energy Change          TolE            ....  1.000e-09 Eh
 1-El. energy change                    ....  1.000e-06 Eh
 Orbital Gradient       TolG            ....  2.000e-06
 Orbital Rotation angle TolX            ....  2.000e-06
 DIIS Error             TolErr          ....  1.000e-08

------------------------------
INITIAL GUESS: MODEL POTENTIAL
------------------------------
Loading Hartree-Fock densities                     ... done
Calculating cut-offs                               ... done
Initializing the effective Hamiltonian             ... done
Setting up the integral package (SHARK)            ... done
Starting the Coulomb interaction                   ... done (   0.0 sec)
Making the grid                                    ... done (   0.0 sec)
Mapping shells                                     ... done
Starting the XC term evaluation                    ... done (   0.0 sec)
  promolecular density results
     # of electrons  =      9.997943079
     EX              =     -6.701143225
     EC              =     -0.612367856
     EX+EC           =     -7.313511080
Transforming the Hamiltonian                       ... done (   0.0 sec)
Diagonalizing the Hamiltonian                      ... done (   0.0 sec)
Back transforming the eigenvectors                 ... done (   0.0 sec)
Now organizing SCF variables                       ... done
                      ------------------
                      INITIAL GUESS DONE (   0.1 sec)
                      ------------------
             **** ENERGY FILE WAS UPDATED (NH3_Opt_Geom-LDA.en.tmp) ****
Finished Guess after   0.1 sec
Maximum memory used throughout the entire GUESS-calculation: 7.6 MB

-------------------------------------------------------------------------------------------
                                      ORCA LEAN-SCF
                              memory conserving SCF solver
-------------------------------------------------------------------------------------------

----------------------------------------D-I-I-S--------------------------------------------
Iteration    Energy (Eh)           Delta-E    RMSDP     MaxDP     DIISErr   Damp  Time(sec)
-------------------------------------------------------------------------------------------
               ***  Starting incremental Fock matrix formation  ***
    1    -55.9764826341363602     0.00e+00  4.04e-03  8.49e-02  3.53e-01  0.700   0.1
    2    -56.0441304426633025    -6.76e-02  2.57e-03  5.52e-02  1.30e-01  0.700   0.1
                               ***Turning on AO-DIIS***
    3    -56.0616677098184795    -1.75e-02  7.99e-04  1.34e-02  1.82e-02  0.700   0.1
    4    -56.0734606482133700    -1.18e-02  8.86e-04  1.49e-02  1.84e-02  0.000   0.1
    5    -56.1032097950899811    -2.97e-02  4.98e-04  1.04e-02  2.00e-02  0.000   0.1
    6    -56.1035851868410020    -3.75e-04  1.56e-04  2.58e-03  4.51e-03  0.000   0.1
                              *** Initializing SOSCF ***
---------------------------------------S-O-S-C-F--------------------------------------
Iteration    Energy (Eh)           Delta-E    RMSDP     MaxDP     MaxGrad    Time(sec)
--------------------------------------------------------------------------------------
    7    -56.1036075693225911    -2.24e-05  5.60e-05  7.61e-04  8.79e-04     0.1
               *** Restarting incremental Fock matrix formation ***
    8    -56.1036092634543024    -1.69e-06  5.76e-05  1.21e-03  1.88e-04     0.1
    9    -56.1036095274776017    -2.64e-07  1.64e-05  3.24e-04  1.06e-04     0.1
   10    -56.1036095289569516    -1.48e-09  1.47e-05  3.10e-04  8.44e-05     0.1
   11    -56.1036095956109904    -6.67e-08  1.03e-06  1.90e-05  4.79e-06     0.1
   12    -56.1036095958956622    -2.85e-10  1.52e-07  2.87e-06  1.77e-06     0.1
                 **** Energy Check signals convergence ****

               *****************************************************
               *                     SUCCESS                       *
               *           SCF CONVERGED AFTER  12 CYCLES          *
               *****************************************************

             **** ENERGY FILE WAS UPDATED (NH3_Opt_Geom-LDA.en.tmp) ****

----------------
TOTAL SCF ENERGY
----------------

Total Energy       :        -56.10360959589566 Eh           -1526.65683 eV

Components:
Nuclear Repulsion  :         11.96288271554579 Eh             325.52659 eV
Electronic Energy  :        -68.06649231144145 Eh           -1852.18342 eV
One Electron Energy:        -99.68677469426993 Eh           -2712.61505 eV
Two Electron Energy:         31.62028238282848 Eh             860.43163 eV

Virial components:
Potential Energy   :       -111.86577133058383 Eh           -3044.02239 eV
Kinetic Energy     :         55.76216173468816 Eh            1517.36556 eV
Virial Ratio       :          2.00612328953157

DFT components:
N(Alpha)           :        4.999998380491 electrons
N(Beta)            :        4.999998380491 electrons
N(Total)           :        9.999996760982 electrons
E(X)               :       -6.894221850768 Eh       
E(C)               :       -0.625566417831 Eh       
E(XC)              :       -7.519788268599 Eh       

---------------
SCF CONVERGENCE
---------------

  Last Energy change         ...    2.8467e-10  Tolerance :   1.0000e-09
  Last MAX-Density change    ...    2.8680e-06  Tolerance :   1.0000e-08
  Last RMS-Density change    ...    1.5184e-07  Tolerance :   1.0000e-09
  Last DIIS Error            ...    8.7950e-04  Tolerance :   1.0000e-08
  Last Orbital Gradient      ...    1.7652e-06  Tolerance :   2.0000e-06
  Last Orbital Rotation      ...    1.6166e-06  Tolerance :   2.0000e-06


----------------
ORBITAL ENERGIES
----------------

  NO   OCC          E(Eh)            E(eV) 
   0   2.0000     -13.831001      -376.3607 
   1   2.0000      -0.770057       -20.9543 
   2   2.0000      -0.413218       -11.2442 
   3   2.0000      -0.413218       -11.2442 
   4   2.0000      -0.223443        -6.0802 
   5   0.0000       0.007760         0.2112 
   6   0.0000       0.089737         2.4419 
   7   0.0000       0.089738         2.4419 
   8   0.0000       0.268732         7.3126 
   9   0.0000       0.268733         7.3126 
  10   0.0000       0.307470         8.3667 
  11   0.0000       0.399371        10.8674 
  12   0.0000       0.443949        12.0805 
  13   0.0000       0.453924        12.3519 
  14   0.0000       0.453926        12.3520 
  15   0.0000       0.521021        14.1777 
*Only the first 10 virtual orbitals were printed.

                    ********************************
                    * MULLIKEN POPULATION ANALYSIS *
                    ********************************

-----------------------
MULLIKEN ATOMIC CHARGES
-----------------------
   0 N :   -0.435408
   1 H :    0.145138
   2 H :    0.145135
   3 H :    0.145135
Sum of atomic charges:   -0.0000000

--------------------------------
MULLIKEN REDUCED ORBITAL CHARGES
--------------------------------
  0 N s       :     3.504140  s :     3.504140
      pz      :     1.742201  p :     3.919098
      px      :     1.088448
      py      :     1.088448
      dz2     :     0.001862  d :     0.011822
      dxz     :     0.004699
      dyz     :     0.004699
      dx2y2   :     0.000280
      dxy     :     0.000280
      f0      :     0.000330  f :     0.000349
      f+1     :     0.000075
      f-1     :     0.000075
      f+2     :    -0.000113
      f-2     :    -0.000113
      f+3     :     0.000000
      f-3     :     0.000096

  1 H s       :     0.777580  s :     0.777580
      pz      :     0.035090  p :     0.072542
      px      :     0.018710
      py      :     0.018742
      dz2     :     0.000671  d :     0.004740
      dxz     :     0.000086
      dyz     :     0.002040
      dx2y2   :     0.000539
      dxy     :     0.001404

  2 H s       :     0.777579  s :     0.777579
      pz      :     0.035090  p :     0.072545
      px      :     0.018735
      py      :     0.018719
      dz2     :     0.000672  d :     0.004741
      dxz     :     0.001551
      dyz     :     0.000574
      dx2y2   :     0.001188
      dxy     :     0.000756

  3 H s       :     0.777579  s :     0.777579
      pz      :     0.035090  p :     0.072545
      px      :     0.018735
      py      :     0.018719
      dz2     :     0.000672  d :     0.004741
      dxz     :     0.001551
      dyz     :     0.000574
      dx2y2   :     0.001188
      dxy     :     0.000756



                     *******************************
                     * LOEWDIN POPULATION ANALYSIS *
                     *******************************

----------------------
LOEWDIN ATOMIC CHARGES
----------------------
   0 N :    0.168772
   1 H :   -0.056257
   2 H :   -0.056258
   3 H :   -0.056258

-------------------------------
LOEWDIN REDUCED ORBITAL CHARGES
-------------------------------
  0 N s       :     2.948919  s :     2.948919
      pz      :     1.519220  p :     3.796271
      px      :     1.138526
      py      :     1.138526
      dz2     :     0.003906  d :     0.078751
      dxz     :     0.014211
      dyz     :     0.014211
      dx2y2   :     0.023211
      dxy     :     0.023211
      f0      :     0.000510  f :     0.007288
      f+1     :     0.000003
      f-1     :     0.000003
      f+2     :     0.002377
      f-2     :     0.002377
      f+3     :     0.000000
      f-3     :     0.002018

  1 H s       :     0.739530  s :     0.739530
      pz      :     0.112105  p :     0.259717
      px      :     0.054898
      py      :     0.092714
      dz2     :     0.008466  d :     0.057010
      dxz     :     0.001698
      dyz     :     0.020034
      dx2y2   :     0.011594
      dxy     :     0.015218

  2 H s       :     0.739530  s :     0.739530
      pz      :     0.112106  p :     0.259718
      px      :     0.083260
      py      :     0.064352
      dz2     :     0.008466  d :     0.057009
      dxz     :     0.015450
      dyz     :     0.006282
      dx2y2   :     0.014312
      dxy     :     0.012500

  3 H s       :     0.739530  s :     0.739530
      pz      :     0.112106  p :     0.259718
      px      :     0.083260
      py      :     0.064352
      dz2     :     0.008466  d :     0.057009
      dxz     :     0.015450
      dyz     :     0.006282
      dx2y2   :     0.014312
      dxy     :     0.012500



                      *****************************
                      * MAYER POPULATION ANALYSIS *
                      *****************************

  NA   - Mulliken gross atomic population
  ZA   - Total nuclear charge
  QA   - Mulliken gross atomic charge
  VA   - Mayer's total valence
  BVA  - Mayer's bonded valence
  FA   - Mayer's free valence

  ATOM       NA         ZA         QA         VA         BVA        FA
  0 N      7.4354     7.0000    -0.4354     3.0273     3.0273    -0.0000
  1 H      0.8549     1.0000     0.1451     1.0365     1.0365    -0.0000
  2 H      0.8549     1.0000     0.1451     1.0365     1.0365    -0.0000
  3 H      0.8549     1.0000     0.1451     1.0365     1.0365    -0.0000

  Mayer bond orders larger than 0.100000
B(  0-N ,  1-H ) :   1.0091 B(  0-N ,  2-H ) :   1.0091 B(  0-N ,  3-H ) :   1.0091 


-------
TIMINGS
-------

Total SCF time: 0 days 0 hours 0 min 1 sec 

Total time                  ....       1.170 sec
Sum of individual times     ....       1.144 sec  ( 97.8%)

SCF preparation             ....       0.041 sec  (  3.5%)
Fock matrix formation       ....       0.491 sec  ( 42.0%)
  Startup                   ....       0.019 sec  (  3.9% of F)
  Split-RI-J                ....       0.089 sec  ( 18.1% of F)
  XC integration            ....       0.344 sec  ( 70.1% of F)
    Basis function eval.    ....       0.078 sec  ( 22.7% of XC)
    Density eval.           ....       0.076 sec  ( 22.1% of XC)
    XC-Functional eval.     ....       0.024 sec  (  7.0% of XC)
    XC-Potential eval.      ....       0.119 sec  ( 34.6% of XC)
Diagonalization             ....       0.000 sec  (  0.0%)
Density matrix formation    ....       0.201 sec  ( 17.2%)
Total Energy calculation    ....       0.075 sec  (  6.4%)
Population analysis         ....       0.026 sec  (  2.2%)
Orbital Transformation      ....       0.019 sec  (  1.6%)
Orbital Orthonormalization  ....       0.000 sec  (  0.0%)
DIIS solution               ....       0.204 sec  ( 17.4%)
SOSCF solution              ....       0.087 sec  (  7.4%)
Finished LeanSCF after   1.2 sec

Maximum memory used throughout the entire LEANSCF-calculation: 5.9 MB

-------------------------   --------------------
FINAL SINGLE POINT ENERGY       -56.103609595896
-------------------------   --------------------

------------------------------------------------------------------------------
                         ORCA SCF GRADIENT CALCULATION
------------------------------------------------------------------------------

Nuc. rep. gradient        (SHARK) ... done (  0.0 sec)
HCore & Overlap gradient  (SHARK) ... done (  0.0 sec)
Split-RIJ-J gradient      (SHARK) ... done (  0.1 sec)
XC gradient                       ... done (  0.1 sec)

------------------
CARTESIAN GRADIENT
------------------

   1   N   :   -0.000000000   -0.000007759   -0.007331440
   2   H   :   -0.000000000   -0.008544827    0.002446560
   3   H   :    0.007403102    0.004276293    0.002442440
   4   H   :   -0.007403102    0.004276293    0.002442440

Difference to translation invariance:
           :   -0.0000000000    0.0000000000    0.0000000000

Difference to rotation invariance:
           :    0.0000128502    0.0000000001    0.0000000004

Norm of the Cartesian gradient     ...    0.0170547950
RMS gradient                       ...    0.0049232952
MAX gradient                       ...    0.0085448271

-------
TIMINGS
-------

Total SCF gradient time     ....        0.194 sec

One electron gradient       ....       0.008 sec  (  4.1%)
RI-J Coulomb gradient       ....       0.066 sec  ( 34.0%)
XC gradient                 ....       0.120 sec  ( 61.9%)

Maximum memory used throughout the entire SCFGRAD-calculation: 7.7 MB
------------------------------------------------------------------------------
                         ORCA GEOMETRY RELAXATION STEP
------------------------------------------------------------------------------

Reading the OPT-File                    .... done
Getting information on internals        .... done
Copying old internal coords+grads       .... done
Making the new internal coordinates     .... (2022 redundants) done
Validating the new internal coordinates .... (2022 redundants) done
Calculating the B-matrix                .... done
Calculating the G,G- and P matrices     .... done
Transforming gradient to internals      .... done
Projecting the internal gradient        .... done
Number of atoms                         ....   4
Number of internal coordinates          ....   7
Current Energy                          ....   -56.103609596 Eh
Current gradient norm                   ....     0.017054795 Eh/bohr
Maximum allowed component of the step   ....  0.300
Current trust radius                    ....  0.300
Evaluating the initial hessian          ....  (Almloef) done
Projecting the Hessian                  .... done
Forming the augmented Hessian           .... done
Diagonalizing the augmented Hessian     .... done
Last element of RFO vector              ....  0.999259125
Lowest eigenvalues of augmented Hessian:
 -0.000570343  0.109497713  0.302702146  0.302704959  0.430235541
Length of the computed step             ....  0.038514909
The final length of the internal step   ....  0.038514909
Converting the step to Cartesian space:
 Initial RMS(Int)=    0.0145572673
Transforming coordinates:
 Iter   0:  RMS(Cart)=    0.0112553264 RMS(Int)=    0.0145472801
done
Storing new coordinates                 .... done

                                .--------------------.
          ----------------------|Geometry convergence|-------------------------
          Item                value                   Tolerance       Converged
          ---------------------------------------------------------------------
          RMS gradient        0.0058298929            0.0000100000      NO
          MAX gradient        0.0088426875            0.0001000000      NO
          RMS step            0.0145572673            0.0000100000      NO
          MAX step            0.0205259208            0.0001000000      NO
          ........................................................
          Max(Bonds)      0.0109      Max(Angles)    0.31
          Max(Dihed)        0.00      Max(Improp)    0.67
          ---------------------------------------------------------------------

The optimization has not yet converged - more geometry cycles are needed


    ---------------------------------------------------------------------------
                         Redundant Internal Coordinates
                            (Angstroem and degrees)

        Definition                    Value    dE/dq     Step     New-Value
    ----------------------------------------------------------------------------
     1. B(H   1,N   0)                1.0116 -0.008838  0.0109    1.0224   
     2. B(H   2,N   0)                1.0116 -0.008843  0.0109    1.0224   
     3. B(H   3,N   0)                1.0116 -0.008843  0.0109    1.0224   
     4. A(H   1,N   0,H   3)          106.84 -0.000462    0.30    107.14   
     5. A(H   2,N   0,H   3)          106.84 -0.001158    0.31    107.15   
     6. A(H   1,N   0,H   2)          106.84 -0.000462    0.30    107.14   
     7. I(H   1,H   3,H   2,N   0)     60.91  0.001284   -0.67     60.24   
    ----------------------------------------------------------------------------

Geometry step timings:
Preparation and reading OPT file:      0.000 s ( 0.000 %)
Internal coordinates            :      0.000 s ( 0.000 %)
B/P matrices and projection     :      0.000 s ( 0.000 %)
Hessian update/contruction      :      0.001 s (50.000 %)
Making the step                 :      0.001 s (50.000 %)
Converting the step to Cartesian:      0.000 s ( 0.000 %)
Storing new data                :      0.000 s ( 0.000 %)
Checking convergence            :      0.000 s ( 0.000 %)
Final printing                  :      0.000 s ( 0.000 %)
Total time                      :      0.002 s

Time for energy+gradient        :      1.714 s
Time for complete geometry iter :      1.770 s

         *************************************************************
         *                GEOMETRY OPTIMIZATION CYCLE   2            *
         *************************************************************
---------------------------------
CARTESIAN COORDINATES (ANGSTROEM)
---------------------------------
  N     -0.000000   -0.000014    0.113205
  H      0.000000    0.949891   -0.264968
  H     -0.822667   -0.474939   -0.264963
  H      0.822667   -0.474939   -0.264963

----------------------------
CARTESIAN COORDINATES (A.U.)
----------------------------
  NO LB      ZA    FRAG     MASS         X           Y           Z
   0 N     7.0000    0    14.007   -0.000000   -0.000027    0.213927
   1 H     1.0000    0     1.008    0.000000    1.795033   -0.500717
   2 H     1.0000    0     1.008   -1.554616   -0.897504   -0.500707
   3 H     1.0000    0     1.008    1.554616   -0.897504   -0.500707

--------------------------------
INTERNAL COORDINATES (ANGSTROEM)
--------------------------------
 N      0   0   0     0.000000000000     0.00000000     0.00000000
 H      1   0   0     1.022415840918     0.00000000     0.00000000
 H      1   2   0     1.022421703224   107.14289501     0.00000000
 H      1   2   3     1.022421702962   107.14289498   114.71142847

---------------------------
INTERNAL COORDINATES (A.U.)
---------------------------
 N      0   0   0     0.000000000000     0.00000000     0.00000000
 H      1   0   0     1.932085934318     0.00000000     0.00000000
 H      1   2   0     1.932097012471   107.14289501     0.00000000
 H      1   2   3     1.932097011976   107.14289498   114.71142847

------------------------------------------------------------------------------
                   ___                                                        
                  /   \      - P O W E R E D   B Y -                         
                 /     \                                                     
                 |  |  |   _    _      __       _____    __    __             
                 |  |  |  | |  | |    /  \     |  _  \  |  |  /  |          
                  \  \/   | |  | |   /    \    | | | |  |  | /  /          
                 / \  \   | |__| |  /  /\  \   | |_| |  |  |/  /          
                |  |  |   |  __  | /  /__\  \  |    /   |      \           
                |  |  |   | |  | | |   __   |  |    \   |  |\   \          
                \     /   | |  | | |  |  |  |  | |\  \  |  | \   \       
                 \___/    |_|  |_| |__|  |__|  |_| \__\ |__|  \__/        
                                                                              
                      - O R C A' S   B I G   F R I E N D -                    
                                      &                                       
                       - I N T E G R A L  F E E D E R -                       
                                                                              
 v1 FN, 2020, v2 2021, v3 2022-2024                                           
------------------------------------------------------------------------------


----------------------
SHARK INTEGRAL PACKAGE
----------------------

Number of atoms                             ...      4
Number of basis functions                   ...     73
Number of shells                            ...     29
Maximum angular momentum                    ...      3
Integral batch strategy                     ... SHARK/LIBINT Hybrid
RI-J (if used) integral strategy            ... SPLIT-RIJ (Revised 2003 algorithm where possible)
Printlevel                                  ...      1
Contraction scheme used                     ... SEGMENTED contraction
Prescreening option                         ... SCHWARTZ
   Thresh                                   ... 1.000e-12
   Tcut                                     ... 1.000e-14
   Tpresel                                  ... 1.000e-14 
Coulomb Range Separation                    ... NOT USED
Exchange Range Separation                   ... NOT USED
Multipole approximations                    ... NOT USED
Finite Nucleus Model                        ... NOT USED
CABS basis                                  ... NOT available
Auxiliary Coulomb fitting basis             ... AVAILABLE
   # of basis functions in Aux-J            ...     82
   # of shells in Aux-J                     ...     30
   Maximum angular momentum in Aux-J        ...      4
Auxiliary J/K fitting basis                 ... NOT available
Auxiliary Correlation fitting basis         ... NOT available
Auxiliary 'external' fitting basis          ... NOT available

Checking pre-screening integrals            ... done (  0.0 sec) Dimension = 29
Check shell pair data                       ... done (  0.0 sec)
Shell pair information
Shell pair cut-off parameter TPreSel        ...   1.0e-14
Total number of shell pairs                 ...       435
Shell pairs after pre-screening             ...       435
Total number of primitive shell pairs       ...      1021
Primitive shell pairs kept                  ...       991
          la=0 lb=0:    105 shell pairs
          la=1 lb=0:    126 shell pairs
          la=1 lb=1:     45 shell pairs
          la=2 lb=0:     70 shell pairs
          la=2 lb=1:     45 shell pairs
          la=2 lb=2:     15 shell pairs
          la=3 lb=0:     14 shell pairs
          la=3 lb=1:      9 shell pairs
          la=3 lb=2:      5 shell pairs
          la=3 lb=3:      1 shell pairs

Calculating one electron integrals          ... done (  0.0 sec)
Calculating RI/J V-Matrix + Cholesky decomp.... done (  0.0 sec)
Calculating Nuclear repulsion               ... done (  0.0 sec) ENN=     11.833933174268 Eh

Diagonalization of the overlap matrix:
Smallest eigenvalue                        ... 9.395e-04
Time for diagonalization                   ...    0.000 sec
Threshold for overlap eigenvalues          ... 1.000e-07
Number of eigenvalues below threshold      ... 0
Time for construction of square roots      ...    0.001 sec
Total time needed                          ...    0.009 sec

-------------------
DFT GRID GENERATION
-------------------

General Integration Accuracy     IntAcc      ... 4.388
Radial Grid Type                 RadialGrid  ... OptM3 with GC (2021)
Angular Grid (max. ang.)         AngularGrid ... 4 (Lebedev-302)
Angular grid pruning method      GridPruning ... 4 (adaptive)
Weight generation scheme         WeightScheme... mBecke (2022)
Basis function cutoff            BFCut       ... 1.0000e-12
Integration weight cutoff        WCut        ... 1.0000e-14
Partially contracted basis set               ... off
Rotationally invariant grid construction     ... off
Angular grids for H and He will be reduced by one unit

Total number of grid points                  ...    16020
Total number of batches                      ...      252
Average number of points per batch           ...       63
Average number of grid points per atom       ...     4005
Initializing property integral containers    ... done (  0.0 sec)

SHARK setup successfully completed in   0.1 seconds

Maximum memory used throughout the entire STARTUP-calculation: 13.8 MB
Occupation numbers will be reassigned to an Aufbau configuration
             **** ENERGY FILE WAS UPDATED (NH3_Opt_Geom-LDA.en.tmp) ****
Finished Guess after   0.1 sec
Maximum memory used throughout the entire GUESS-calculation: 7.7 MB
----------------------------------------D-I-I-S--------------------------------------------
Iteration    Energy (Eh)           Delta-E    RMSDP     MaxDP     DIISErr   Damp  Time(sec)
-------------------------------------------------------------------------------------------
               ***  Starting incremental Fock matrix formation  ***
    1    -56.1038020198455882     0.00e+00  7.77e-05  1.88e-03  4.63e-03  0.700   0.1
    2    -56.1038264326368790    -2.44e-05  6.54e-05  1.52e-03  3.34e-03  0.700   0.1
                               ***Turning on AO-DIIS***
                              *** Initializing SOSCF ***
---------------------------------------S-O-S-C-F--------------------------------------
Iteration    Energy (Eh)           Delta-E    RMSDP     MaxDP     MaxGrad    Time(sec)
--------------------------------------------------------------------------------------
    3    -56.1038411127249077    -1.47e-05  1.73e-04  4.25e-03  2.29e-03     0.1
               *** Restarting incremental Fock matrix formation ***
    4    -56.1038721363727007    -3.10e-05  5.00e-05  7.74e-04  3.14e-04     0.1
    5    -56.1038703844762097     1.75e-06  3.11e-05  6.53e-04  6.91e-04     0.1
    6    -56.1038730517106501    -2.67e-06  2.37e-06  2.98e-05  1.86e-05     0.1
    7    -56.1038730560208592    -4.31e-09  9.19e-07  1.48e-05  1.19e-05     0.1
    8    -56.1038730575765072    -1.56e-09  1.74e-07  3.01e-06  1.09e-06     0.1
    9    -56.1038730575855737    -9.07e-12  3.50e-08  6.54e-07  3.02e-07     0.1
                 **** Energy Check signals convergence ****

               *****************************************************
               *                     SUCCESS                       *
               *           SCF CONVERGED AFTER   9 CYCLES          *
               *****************************************************

             **** ENERGY FILE WAS UPDATED (NH3_Opt_Geom-LDA.en.tmp) ****

----------------
TOTAL SCF ENERGY
----------------

Total Energy       :        -56.10387305758557 Eh           -1526.66400 eV

Components:
Nuclear Repulsion  :         11.83393317426759 Eh             322.01769 eV
Electronic Energy  :        -67.93780623185316 Eh           -1848.68169 eV
One Electron Energy:        -99.45463680363275 Eh           -2706.29825 eV
Two Electron Energy:         31.51683057177959 Eh             857.61656 eV

Virial components:
Potential Energy   :       -111.81393633822140 Eh           -3042.61189 eV
Kinetic Energy     :         55.71006328063581 Eh            1515.94789 eV
Virial Ratio       :          2.00706891634580

DFT components:
N(Alpha)           :        4.999998427250 electrons
N(Beta)            :        4.999998427250 electrons
N(Total)           :        9.999996854500 electrons
E(X)               :       -6.881263797620 Eh       
E(C)               :       -0.624816705516 Eh       
E(XC)              :       -7.506080503136 Eh       

---------------
SCF CONVERGENCE
---------------

  Last Energy change         ...    9.0665e-12  Tolerance :   1.0000e-09
  Last MAX-Density change    ...    6.5435e-07  Tolerance :   1.0000e-08
  Last RMS-Density change    ...    3.5028e-08  Tolerance :   1.0000e-09
  Last DIIS Error            ...    2.2862e-03  Tolerance :   1.0000e-08
  Last Orbital Gradient      ...    3.0182e-07  Tolerance :   2.0000e-06
  Last Orbital Rotation      ...    2.0104e-07  Tolerance :   2.0000e-06


Total SCF time: 0 days 0 hours 0 min 0 sec 
Finished LeanSCF after   0.9 sec

Maximum memory used throughout the entire LEANSCF-calculation: 6.0 MB

-------------------------   --------------------
FINAL SINGLE POINT ENERGY       -56.103873057586
-------------------------   --------------------

------------------------------------------------------------------------------
                         ORCA SCF GRADIENT CALCULATION
------------------------------------------------------------------------------

Nuc. rep. gradient        (SHARK) ... done (  0.0 sec)
HCore & Overlap gradient  (SHARK) ... done (  0.0 sec)
Split-RIJ-J gradient      (SHARK) ... done (  0.1 sec)
XC gradient                       ... done (  0.1 sec)

------------------
CARTESIAN GRADIENT
------------------

   1   N   :    0.000000000   -0.000011654    0.000469951
   2   H   :   -0.000000000    0.000550502   -0.000154524
   3   H   :   -0.000482429   -0.000269424   -0.000157714
   4   H   :    0.000482429   -0.000269424   -0.000157714

Difference to translation invariance:
           :    0.0000000000    0.0000000000   -0.0000000000

Difference to rotation invariance:
           :    0.0000140443   -0.0000000000    0.0000000009

Norm of the Cartesian gradient     ...    0.0010992368
RMS gradient                       ...    0.0003173223
MAX gradient                       ...    0.0005505021

-------
TIMINGS
-------

Total SCF gradient time     ....        0.177 sec

One electron gradient       ....       0.007 sec  (  4.0%)
RI-J Coulomb gradient       ....       0.059 sec  ( 33.3%)
XC gradient                 ....       0.110 sec  ( 62.1%)

Maximum memory used throughout the entire SCFGRAD-calculation: 7.7 MB
------------------------------------------------------------------------------
                         ORCA GEOMETRY RELAXATION STEP
------------------------------------------------------------------------------

Reading the OPT-File                    .... done
Getting information on internals        .... done
Copying old internal coords+grads       .... done
Making the new internal coordinates     .... (2022 redundants) done
Validating the new internal coordinates .... (2022 redundants) done
Calculating the B-matrix                .... done
Calculating the G,G- and P matrices     .... done
Transforming gradient to internals      .... done
Projecting the internal gradient        .... done
Number of atoms                         ....   4
Number of internal coordinates          ....   7
Current Energy                          ....   -56.103873058 Eh
Current gradient norm                   ....     0.001099237 Eh/bohr
Maximum allowed component of the step   ....  0.300
Current trust radius                    ....  0.300
Updating the Hessian (BFGS)             .... done
Forming the augmented Hessian           .... done
Diagonalizing the augmented Hessian     .... done
Last element of RFO vector              ....  0.999997298
Lowest eigenvalues of augmented Hessian:
 -0.000002229  0.109754354  0.302702146  0.302818064  0.430235541
Length of the computed step             ....  0.002324499
The final length of the internal step   ....  0.002324499
Converting the step to Cartesian space:
 Initial RMS(Int)=    0.0008785779
Transforming coordinates:
 Iter   0:  RMS(Cart)=    0.0006819762 RMS(Int)=    0.0008786091
done
Storing new coordinates                 .... done
The predicted energy change is          ....    -0.000001115
Previously predicted energy change      ....    -0.000285595
Actually observed energy change         ....    -0.000263462
Ratio of predicted to observed change   ....     0.922501976
New trust radius                        ....     0.450000000

                                .--------------------.
          ----------------------|Geometry convergence|-------------------------
          Item                value                   Tolerance       Converged
          ---------------------------------------------------------------------
          Energy change      -0.0002634617            0.0000010000      NO
          RMS gradient        0.0003764186            0.0000100000      NO
          MAX gradient        0.0005709895            0.0001000000      NO
          RMS step            0.0008785779            0.0000100000      NO
          MAX step            0.0012450785            0.0001000000      NO
          ........................................................
          Max(Bonds)      0.0007      Max(Angles)    0.02
          Max(Dihed)        0.00      Max(Improp)    0.04
          ---------------------------------------------------------------------

The optimization has not yet converged - more geometry cycles are needed


    ---------------------------------------------------------------------------
                         Redundant Internal Coordinates
                            (Angstroem and degrees)

        Definition                    Value    dE/dq     Step     New-Value
    ----------------------------------------------------------------------------
     1. B(H   1,N   0)                1.0224  0.000570 -0.0007    1.0218   
     2. B(H   2,N   0)                1.0224  0.000571 -0.0007    1.0218   
     3. B(H   3,N   0)                1.0224  0.000571 -0.0007    1.0218   
     4. A(H   1,N   0,H   3)          107.14  0.000025   -0.02    107.13   
     5. A(H   2,N   0,H   3)          107.15  0.000085   -0.02    107.13   
     6. A(H   1,N   0,H   2)          107.14  0.000025   -0.02    107.13   
     7. I(H   1,H   3,H   2,N   0)     60.24 -0.000080    0.04     60.28   
    ----------------------------------------------------------------------------

Geometry step timings:
Preparation and reading OPT file:      0.000 s ( 0.000 %)
Internal coordinates            :      0.000 s ( 0.000 %)
B/P matrices and projection     :      0.001 s (50.000 %)
Hessian update/contruction      :      0.001 s (50.000 %)
Making the step                 :      0.000 s ( 0.000 %)
Converting the step to Cartesian:      0.000 s ( 0.000 %)
Storing new data                :      0.000 s ( 0.000 %)
Checking convergence            :      0.000 s ( 0.000 %)
Final printing                  :      0.000 s ( 0.000 %)
Total time                      :      0.002 s

Time for energy+gradient        :      1.382 s
Time for complete geometry iter :      1.426 s

         *************************************************************
         *                GEOMETRY OPTIMIZATION CYCLE   3            *
         *************************************************************
---------------------------------
CARTESIAN COORDINATES (ANGSTROEM)
---------------------------------
  N     -0.000000   -0.000005    0.113229
  H      0.000000    0.949180   -0.264974
  H     -0.822030   -0.474588   -0.264972
  H      0.822030   -0.474588   -0.264972

----------------------------
CARTESIAN COORDINATES (A.U.)
----------------------------
  NO LB      ZA    FRAG     MASS         X           Y           Z
   0 N     7.0000    0    14.007   -0.000000   -0.000009    0.213972
   1 H     1.0000    0     1.008    0.000000    1.793691   -0.500728
   2 H     1.0000    0     1.008   -1.553412   -0.896842   -0.500724
   3 H     1.0000    0     1.008    1.553412   -0.896842   -0.500724

--------------------------------
INTERNAL COORDINATES (ANGSTROEM)
--------------------------------
 N      0   0   0     0.000000000000     0.00000000     0.00000000
 H      1   0   0     1.021758168047     0.00000000     0.00000000
 H      1   2   0     1.021762836039   107.12609322     0.00000000
 H      1   2   3     1.021762836196   107.12609320   114.67201768

---------------------------
INTERNAL COORDINATES (A.U.)
---------------------------
 N      0   0   0     0.000000000000     0.00000000     0.00000000
 H      1   0   0     1.930843112706     0.00000000     0.00000000
 H      1   2   0     1.930851933932   107.12609322     0.00000000
 H      1   2   3     1.930851934228   107.12609320   114.67201768

------------------------------------------------------------------------------
                   ___                                                        
                  /   \      - P O W E R E D   B Y -                         
                 /     \                                                     
                 |  |  |   _    _      __       _____    __    __             
                 |  |  |  | |  | |    /  \     |  _  \  |  |  /  |          
                  \  \/   | |  | |   /    \    | | | |  |  | /  /          
                 / \  \   | |__| |  /  /\  \   | |_| |  |  |/  /          
                |  |  |   |  __  | /  /__\  \  |    /   |      \           
                |  |  |   | |  | | |   __   |  |    \   |  |\   \          
                \     /   | |  | | |  |  |  |  | |\  \  |  | \   \       
                 \___/    |_|  |_| |__|  |__|  |_| \__\ |__|  \__/        
                                                                              
                      - O R C A' S   B I G   F R I E N D -                    
                                      &                                       
                       - I N T E G R A L  F E E D E R -                       
                                                                              
 v1 FN, 2020, v2 2021, v3 2022-2024                                           
------------------------------------------------------------------------------


----------------------
SHARK INTEGRAL PACKAGE
----------------------

Number of atoms                             ...      4
Number of basis functions                   ...     73
Number of shells                            ...     29
Maximum angular momentum                    ...      3
Integral batch strategy                     ... SHARK/LIBINT Hybrid
RI-J (if used) integral strategy            ... SPLIT-RIJ (Revised 2003 algorithm where possible)
Printlevel                                  ...      1
Contraction scheme used                     ... SEGMENTED contraction
Prescreening option                         ... SCHWARTZ
   Thresh                                   ... 1.000e-12
   Tcut                                     ... 1.000e-14
   Tpresel                                  ... 1.000e-14 
Coulomb Range Separation                    ... NOT USED
Exchange Range Separation                   ... NOT USED
Multipole approximations                    ... NOT USED
Finite Nucleus Model                        ... NOT USED
CABS basis                                  ... NOT available
Auxiliary Coulomb fitting basis             ... AVAILABLE
   # of basis functions in Aux-J            ...     82
   # of shells in Aux-J                     ...     30
   Maximum angular momentum in Aux-J        ...      4
Auxiliary J/K fitting basis                 ... NOT available
Auxiliary Correlation fitting basis         ... NOT available
Auxiliary 'external' fitting basis          ... NOT available

Checking pre-screening integrals            ... done (  0.0 sec) Dimension = 29
Check shell pair data                       ... done (  0.0 sec)
Shell pair information
Shell pair cut-off parameter TPreSel        ...   1.0e-14
Total number of shell pairs                 ...       435
Shell pairs after pre-screening             ...       435
Total number of primitive shell pairs       ...      1021
Primitive shell pairs kept                  ...       991
          la=0 lb=0:    105 shell pairs
          la=1 lb=0:    126 shell pairs
          la=1 lb=1:     45 shell pairs
          la=2 lb=0:     70 shell pairs
          la=2 lb=1:     45 shell pairs
          la=2 lb=2:     15 shell pairs
          la=3 lb=0:     14 shell pairs
          la=3 lb=1:      9 shell pairs
          la=3 lb=2:      5 shell pairs
          la=3 lb=3:      1 shell pairs

Calculating one electron integrals          ... done (  0.0 sec)
Calculating RI/J V-Matrix + Cholesky decomp.... done (  0.0 sec)
Calculating Nuclear repulsion               ... done (  0.0 sec) ENN=     11.841671002934 Eh

Diagonalization of the overlap matrix:
Smallest eigenvalue                        ... 9.362e-04
Time for diagonalization                   ...    0.001 sec
Threshold for overlap eigenvalues          ... 1.000e-07
Number of eigenvalues below threshold      ... 0
Time for construction of square roots      ...    0.001 sec
Total time needed                          ...    0.007 sec

-------------------
DFT GRID GENERATION
-------------------

General Integration Accuracy     IntAcc      ... 4.388
Radial Grid Type                 RadialGrid  ... OptM3 with GC (2021)
Angular Grid (max. ang.)         AngularGrid ... 4 (Lebedev-302)
Angular grid pruning method      GridPruning ... 4 (adaptive)
Weight generation scheme         WeightScheme... mBecke (2022)
Basis function cutoff            BFCut       ... 1.0000e-12
Integration weight cutoff        WCut        ... 1.0000e-14
Partially contracted basis set               ... off
Rotationally invariant grid construction     ... off
Angular grids for H and He will be reduced by one unit

Total number of grid points                  ...    16020
Total number of batches                      ...      252
Average number of points per batch           ...       63
Average number of grid points per atom       ...     4005
Initializing property integral containers    ... done (  0.0 sec)

SHARK setup successfully completed in   0.1 seconds

Maximum memory used throughout the entire STARTUP-calculation: 13.8 MB
Occupation numbers will be reassigned to an Aufbau configuration
             **** ENERGY FILE WAS UPDATED (NH3_Opt_Geom-LDA.en.tmp) ****
Finished Guess after   0.1 sec
Maximum memory used throughout the entire GUESS-calculation: 7.7 MB
----------------------------------------D-I-I-S--------------------------------------------
Iteration    Energy (Eh)           Delta-E    RMSDP     MaxDP     DIISErr   Damp  Time(sec)
-------------------------------------------------------------------------------------------
               ***  Starting incremental Fock matrix formation  ***
                              *** Initializing SOSCF ***
---------------------------------------S-O-S-C-F--------------------------------------
Iteration    Energy (Eh)           Delta-E    RMSDP     MaxDP     MaxGrad    Time(sec)
--------------------------------------------------------------------------------------
    1    -56.1038739510154230     0.00e+00  1.54e-05  3.67e-04  3.21e-05     0.1
               *** Restarting incremental Fock matrix formation ***
    2    -56.1038741601639046    -2.09e-07  1.18e-05  2.52e-04  8.34e-05     0.1
    3    -56.1038740684104411     9.18e-08  6.93e-06  1.39e-04  1.56e-04     0.1
    4    -56.1038742069442478    -1.39e-07  5.33e-07  9.43e-06  4.08e-06     0.1
    5    -56.1038742070552487    -1.11e-10  1.96e-07  3.59e-06  2.21e-06     0.1
                 **** Energy Check signals convergence ****

               *****************************************************
               *                     SUCCESS                       *
               *           SCF CONVERGED AFTER   5 CYCLES          *
               *****************************************************

             **** ENERGY FILE WAS UPDATED (NH3_Opt_Geom-LDA.en.tmp) ****

----------------
TOTAL SCF ENERGY
----------------

Total Energy       :        -56.10387420705525 Eh           -1526.66403 eV

Components:
Nuclear Repulsion  :         11.84167100293448 Eh             322.22825 eV
Electronic Energy  :        -67.94554520998973 Eh           -1848.89228 eV
One Electron Energy:        -99.46860150900554 Eh           -2706.67825 eV
Two Electron Energy:         31.52305629901581 Eh             857.78597 eV

Virial components:
Potential Energy   :       -111.81704292529702 Eh           -3042.69643 eV
Kinetic Energy     :         55.71316871824176 Eh            1516.03239 eV
Virial Ratio       :          2.00701280321694

DFT components:
N(Alpha)           :        4.999998425802 electrons
N(Beta)            :        4.999998425802 electrons
N(Total)           :        9.999996851604 electrons
E(X)               :       -6.882042889463 Eh       
E(C)               :       -0.624861914443 Eh       
E(XC)              :       -7.506904803906 Eh       

---------------
SCF CONVERGENCE
---------------

  Last Energy change         ...    1.1100e-10  Tolerance :   1.0000e-09
  Last MAX-Density change    ...    3.5905e-06  Tolerance :   1.0000e-08
  Last RMS-Density change    ...    1.9609e-07  Tolerance :   1.0000e-09
  Last DIIS Error            ...    2.7942e-04  Tolerance :   1.0000e-08
  Last Orbital Gradient      ...    2.2095e-06  Tolerance :   2.0000e-06
  Last Orbital Rotation      ...    1.8673e-06  Tolerance :   2.0000e-06


Total SCF time: 0 days 0 hours 0 min 0 sec 
Finished LeanSCF after   0.5 sec

Maximum memory used throughout the entire LEANSCF-calculation: 6.1 MB

-------------------------   --------------------
FINAL SINGLE POINT ENERGY       -56.103874207055
-------------------------   --------------------

------------------------------------------------------------------------------
                         ORCA SCF GRADIENT CALCULATION
------------------------------------------------------------------------------

Nuc. rep. gradient        (SHARK) ... done (  0.0 sec)
HCore & Overlap gradient  (SHARK) ... done (  0.0 sec)
Split-RIJ-J gradient      (SHARK) ... done (  0.1 sec)
XC gradient                       ... done (  0.1 sec)

------------------
CARTESIAN GRADIENT
------------------

   1   N   :   -0.000000000   -0.000008245    0.000020376
   2   H   :   -0.000000000    0.000017314   -0.000003798
   3   H   :   -0.000016403   -0.000004535   -0.000008289
   4   H   :    0.000016403   -0.000004535   -0.000008289

Difference to translation invariance:
           :    0.0000000000    0.0000000000   -0.0000000000

Difference to rotation invariance:
           :    0.0000139484    0.0000000001    0.0000000007

Norm of the Cartesian gradient     ...    0.0000389103
RMS gradient                       ...    0.0000112324
MAX gradient                       ...    0.0000203759

-------
TIMINGS
-------

Total SCF gradient time     ....        0.176 sec

One electron gradient       ....       0.008 sec  (  4.5%)
RI-J Coulomb gradient       ....       0.059 sec  ( 33.5%)
XC gradient                 ....       0.109 sec  ( 61.9%)

Maximum memory used throughout the entire SCFGRAD-calculation: 7.7 MB
------------------------------------------------------------------------------
                         ORCA GEOMETRY RELAXATION STEP
------------------------------------------------------------------------------

Reading the OPT-File                    .... done
Getting information on internals        .... done
Copying old internal coords+grads       .... done
Making the new internal coordinates     .... (2022 redundants) done
Validating the new internal coordinates .... (2022 redundants) done
Calculating the B-matrix                .... done
Calculating the G,G- and P matrices     .... done
Transforming gradient to internals      .... done
Projecting the internal gradient        .... done
Number of atoms                         ....   4
Number of internal coordinates          ....   7
Current Energy                          ....   -56.103874207 Eh
Current gradient norm                   ....     0.000038910 Eh/bohr
Maximum allowed component of the step   ....  0.300
Current trust radius                    ....  0.450
Updating the Hessian (BFGS)             .... done
Forming the augmented Hessian           .... done
Diagonalizing the augmented Hessian     .... done
Last element of RFO vector              ....  0.999999997
Lowest eigenvalues of augmented Hessian:
 -0.000000002  0.110024023  0.302480887  0.302702146  0.430222446
Length of the computed step             ....  0.000076265
The final length of the internal step   ....  0.000076265
Converting the step to Cartesian space:
 Initial RMS(Int)=    0.0000288254
Transforming coordinates:
 Iter   0:  RMS(Cart)=    0.0000203876 RMS(Int)=    0.0000288254
done
Storing new coordinates                 .... done
The predicted energy change is          ....    -0.000000001
Previously predicted energy change      ....    -0.000001115
Actually observed energy change         ....    -0.000001149
Ratio of predicted to observed change   ....     1.031221561
New trust radius                        ....     0.675000000

                                .--------------------.
          ----------------------|Geometry convergence|-------------------------
          Item                value                   Tolerance       Converged
          ---------------------------------------------------------------------
          Energy change      -0.0000011495            0.0000010000      NO
          RMS gradient        0.0000121243            0.0000100000      NO
          MAX gradient        0.0000188237            0.0001000000      YES
          RMS step            0.0000288254            0.0000100000      NO
[...]
   Full preconditioner red. dimension   ....   250
 SOSCF                  CNVSOSCF        .... on
   Start iteration      SOSCFMaxIt      ....   150
   Startup grad/error   SOSCFStart      ....  0.003300
   Hessian update       SOSCFHessUp     .... L-BFGS
 Level Shifting         CNVShift        .... on
   Level shift para.    LevelShift      ....    0.2500
   Turn off err/grad.   ShiftErr        ....    0.0010
 Zerner damping         CNVZerner       .... off
 Static damping         CNVDamp         .... on
   Fraction old density DampFac         ....    0.7000
   Max. Damping (<1)    DampMax         ....    0.9800
   Min. Damping (>=0)   DampMin         ....    0.0000
   Turn off err/grad.   DampErr         ....    0.1000

SCF Procedure:
 Maximum # iterations   MaxIter         ....   400
 SCF integral mode      SCFMode         .... Direct
   Integral package                     .... SHARK and LIBINT hybrid scheme
 Reset frequency        DirectResetFreq ....    20
 Integral Threshold     Thresh          ....  1.000e-12 Eh
 Primitive CutOff       TCut            ....  1.000e-14 Eh

Convergence Tolerance:
 Convergence Check Mode ConvCheckMode   .... Total+1el-Energy
 Convergence forced     ConvForced      .... 0
 Energy Change          TolE            ....  1.000e-09 Eh
 1-El. energy change                    ....  1.000e-06 Eh
 Orbital Gradient       TolG            ....  2.000e-06
 Orbital Rotation angle TolX            ....  2.000e-06
 DIIS Error             TolErr          ....  1.000e-08

---------------------
INITIAL GUESS: MOREAD
---------------------
Guess MOs are being read from file: NH3_Opt_Geom-LDA.gbw
Input Geometry matches current geometry (good)
Input basis set matches current basis set (good)
Occupation numbers will be reassigned to an Aufbau configuration
MOs were renormalized
MOs were reorthogonalized (Cholesky)
                      ------------------
                      INITIAL GUESS DONE (   0.0 sec)
                      ------------------
             **** ENERGY FILE WAS UPDATED (NH3_Opt_Geom-LDA.en.tmp) ****
Finished Guess after   0.1 sec
Maximum memory used throughout the entire GUESS-calculation: 7.7 MB

-------------------------------------------------------------------------------------------
                                      ORCA LEAN-SCF
                              memory conserving SCF solver
-------------------------------------------------------------------------------------------

----------------------------------------D-I-I-S--------------------------------------------
Iteration    Energy (Eh)           Delta-E    RMSDP     MaxDP     DIISErr   Damp  Time(sec)
-------------------------------------------------------------------------------------------
               ***  Starting incremental Fock matrix formation  ***
                              *** Initializing SOSCF ***
---------------------------------------S-O-S-C-F--------------------------------------
Iteration    Energy (Eh)           Delta-E    RMSDP     MaxDP     MaxGrad    Time(sec)
--------------------------------------------------------------------------------------
    1    -56.1038742084809243     0.00e+00  1.40e-07  1.86e-06  2.39e-07     0.1
               *** Restarting incremental Fock matrix formation ***
    2    -56.1038742084950641    -1.41e-11  5.66e-08  1.16e-06  2.52e-07     0.1
                  *** Gradient check signals convergence ***

               *****************************************************
               *                     SUCCESS                       *
               *           SCF CONVERGED AFTER   2 CYCLES          *
               *****************************************************

             **** ENERGY FILE WAS UPDATED (NH3_Opt_Geom-LDA.en.tmp) ****

----------------
TOTAL SCF ENERGY
----------------

Total Energy       :        -56.10387420849506 Eh           -1526.66403 eV

Components:
Nuclear Repulsion  :         11.84192997472743 Eh             322.23530 eV
Electronic Energy  :        -67.94580418322249 Eh           -1848.89933 eV
One Electron Energy:        -99.46907106118564 Eh           -2706.69103 eV
Two Electron Energy:         31.52326687796315 Eh             857.79170 eV

Virial components:
Potential Energy   :       -111.81713795777404 Eh           -3042.69901 eV
Kinetic Energy     :         55.71326374927898 Eh            1516.03498 eV
Virial Ratio       :          2.00701108556436

DFT components:
N(Alpha)           :        4.999998426276 electrons
N(Beta)            :        4.999998426276 electrons
N(Total)           :        9.999996852551 electrons
E(X)               :       -6.882068538721 Eh       
E(C)               :       -0.624863407508 Eh       
E(XC)              :       -7.506931946230 Eh       

---------------
SCF CONVERGENCE
---------------

  Last Energy change         ...    1.4140e-11  Tolerance :   1.0000e-09
  Last MAX-Density change    ...    1.1648e-06  Tolerance :   1.0000e-08
  Last RMS-Density change    ...    5.6580e-08  Tolerance :   1.0000e-09
  Last DIIS Error            ...    1.7767e-06  Tolerance :   1.0000e-08
  Last Orbital Gradient      ...    2.5209e-07  Tolerance :   2.0000e-06
  Last Orbital Rotation      ...    4.7487e-07  Tolerance :   2.0000e-06


----------------
ORBITAL ENERGIES
----------------

  NO   OCC          E(Eh)            E(eV) 
   0   2.0000     -13.833558      -376.4303 
   1   2.0000      -0.765599       -20.8330 
   2   2.0000      -0.410937       -11.1822 
   3   2.0000      -0.410935       -11.1821 
   4   2.0000      -0.222453        -6.0532 
   5   0.0000       0.006148         0.1673 
   6   0.0000       0.087616         2.3842 
   7   0.0000       0.087616         2.3842 
   8   0.0000       0.267834         7.2881 
   9   0.0000       0.267835         7.2882 
  10   0.0000       0.308420         8.3925 
  11   0.0000       0.392975        10.6934 
  12   0.0000       0.441955        12.0262 
  13   0.0000       0.450356        12.2548 
  14   0.0000       0.450357        12.2548 
  15   0.0000       0.520328        14.1588 
*Only the first 10 virtual orbitals were printed.

                    ********************************
                    * MULLIKEN POPULATION ANALYSIS *
                    ********************************

-----------------------
MULLIKEN ATOMIC CHARGES
-----------------------
   0 N :   -0.446733
   1 H :    0.148912
   2 H :    0.148910
   3 H :    0.148910
Sum of atomic charges:   -0.0000000

--------------------------------
MULLIKEN REDUCED ORBITAL CHARGES
--------------------------------
  0 N s       :     3.517218  s :     3.517218
      pz      :     1.741071  p :     3.917267
      px      :     1.088099
      py      :     1.088098
      dz2     :     0.001854  d :     0.011856
      dxz     :     0.004695
      dyz     :     0.004695
      dx2y2   :     0.000306
      dxy     :     0.000306
      f0      :     0.000335  f :     0.000392
      f+1     :     0.000078
      f-1     :     0.000078
      f+2     :    -0.000104
      f-2     :    -0.000104
      f+3     :     0.000000
      f-3     :     0.000110

  1 H s       :     0.775469  s :     0.775469
      pz      :     0.034093  p :     0.070946
      px      :     0.018153
      py      :     0.018700
      dz2     :     0.000655  d :     0.004673
      dxz     :     0.000083
      dyz     :     0.002022
      dx2y2   :     0.000576
      dxy     :     0.001338

  2 H s       :     0.775468  s :     0.775468
      pz      :     0.034092  p :     0.070948
      px      :     0.018565
      py      :     0.018291
      dz2     :     0.000655  d :     0.004673
      dxz     :     0.001537
      dyz     :     0.000567
      dx2y2   :     0.001147
      dxy     :     0.000766

  3 H s       :     0.775468  s :     0.775468
      pz      :     0.034092  p :     0.070948
      px      :     0.018565
      py      :     0.018291
      dz2     :     0.000655  d :     0.004673
      dxz     :     0.001537
      dyz     :     0.000567
      dx2y2   :     0.001147
      dxy     :     0.000766



                     *******************************
                     * LOEWDIN POPULATION ANALYSIS *
                     *******************************

----------------------
LOEWDIN ATOMIC CHARGES
----------------------
   0 N :    0.148286
   1 H :   -0.049432
   2 H :   -0.049427
   3 H :   -0.049427

-------------------------------
LOEWDIN REDUCED ORBITAL CHARGES
-------------------------------
  0 N s       :     2.960060  s :     2.960060
      pz      :     1.527471  p :     3.807154
      px      :     1.139841
      py      :     1.139842
      dz2     :     0.003805  d :     0.077600
      dxz     :     0.013922
      dyz     :     0.013922
      dx2y2   :     0.022975
      dxy     :     0.022976
      f0      :     0.000466  f :     0.006901
      f+1     :     0.000007
      f-1     :     0.000007
      f+2     :     0.002245
      f-2     :     0.002245
      f+3     :     0.000000
      f-3     :     0.001932

  1 H s       :     0.740323  s :     0.740323
      pz      :     0.109416  p :     0.253992
      px      :     0.052710
      py      :     0.091866
      dz2     :     0.008054  d :     0.055117
      dxz     :     0.001586
      dyz     :     0.019568
      dx2y2   :     0.011458
      dxy     :     0.014451

  2 H s       :     0.740322  s :     0.740322
      pz      :     0.109414  p :     0.253989
      px      :     0.082076
      py      :     0.062498
      dz2     :     0.008054  d :     0.055116
      dxz     :     0.015072
      dyz     :     0.006082
      dx2y2   :     0.013703
      dxy     :     0.012206

  3 H s       :     0.740322  s :     0.740322
      pz      :     0.109414  p :     0.253989
      px      :     0.082076
      py      :     0.062498
      dz2     :     0.008054  d :     0.055116
      dxz     :     0.015072
      dyz     :     0.006082
      dx2y2   :     0.013703
      dxy     :     0.012206



                      *****************************
                      * MAYER POPULATION ANALYSIS *
                      *****************************

  NA   - Mulliken gross atomic population
  ZA   - Total nuclear charge
  QA   - Mulliken gross atomic charge
  VA   - Mayer's total valence
  BVA  - Mayer's bonded valence
  FA   - Mayer's free valence

  ATOM       NA         ZA         QA         VA         BVA        FA
  0 N      7.4467     7.0000    -0.4467     3.0145     3.0145    -0.0000
  1 H      0.8511     1.0000     0.1489     1.0326     1.0326     0.0000
  2 H      0.8511     1.0000     0.1489     1.0326     1.0326     0.0000
  3 H      0.8511     1.0000     0.1489     1.0326     1.0326    -0.0000

  Mayer bond orders larger than 0.100000
B(  0-N ,  1-H ) :   1.0048 B(  0-N ,  2-H ) :   1.0048 B(  0-N ,  3-H ) :   1.0048 


-------
TIMINGS
-------

Total SCF time: 0 days 0 hours 0 min 0 sec 

Total time                  ....       0.326 sec
Sum of individual times     ....       0.296 sec  ( 90.8%)

SCF preparation             ....       0.049 sec  ( 15.0%)
Fock matrix formation       ....       0.095 sec  ( 29.1%)
  Startup                   ....       0.015 sec  ( 15.8% of F)
  Split-RI-J                ....       0.016 sec  ( 16.8% of F)
  XC integration            ....       0.058 sec  ( 61.1% of F)
    Basis function eval.    ....       0.016 sec  ( 27.6% of XC)
    Density eval.           ....       0.016 sec  ( 27.6% of XC)
    XC-Functional eval.     ....       0.001 sec  (  1.7% of XC)
    XC-Potential eval.      ....       0.020 sec  ( 34.5% of XC)
Diagonalization             ....       0.000 sec  (  0.0%)
Density matrix formation    ....       0.024 sec  (  7.4%)
Total Energy calculation    ....       0.013 sec  (  4.0%)
Population analysis         ....       0.054 sec  ( 16.6%)
Orbital Transformation      ....       0.008 sec  (  2.5%)
Orbital Orthonormalization  ....       0.000 sec  (  0.0%)
DIIS solution               ....       0.024 sec  (  7.4%)
SOSCF solution              ....       0.029 sec  (  8.9%)
Finished LeanSCF after   0.4 sec

Maximum memory used throughout the entire LEANSCF-calculation: 6.3 MB

-------------------------   --------------------
FINAL SINGLE POINT ENERGY       -56.103874208495
-------------------------   --------------------

                                *** OPTIMIZATION RUN DONE ***


------------------------------------------------------------------------------
                              ORCA PROPERTY CALCULATIONS
------------------------------------------------------------------------------

GBWName                                 ... NH3_Opt_Geom-LDA.gbw
Number of atoms                         ...      4
Number of basis functions               ...     73
Max core memory                         ...   4000 MB

Electric properties:
Dipole moment                           ... YES
Quadrupole moment                       ...  NO
Static polarizability (Dipole/Dipole)   ...  NO
Static polarizability (Dipole/Quad.)    ...  NO
Static polarizability (Quad./Quad.)     ...  NO
Static polarizability (Velocity)        ...  NO

Atomic electric properties:
Dipole moment                           ...  NO
Quadrupole moment                       ...  NO
Static polarizability                   ...  NO

Choice of electric origin               ... Center of mass
Position of electric origin             ...     0.000000     0.000005     0.087055

General magnetic properties:
Magnetizability                         ...  NO

EPR properties:
g-Tensor (aka g-matrix)                 ...  NO
Zero-Field splitting spin-orbit         ...  NO
Zero-field splitting spin-spin          ...  NO
Hyperfine couplings                     ...  NO (   0 nuclei)
Quadrupole couplings                    ...  NO (   0 nuclei)
Contact density                         ...  NO (   0 nuclei)

NMR properties:
Chemical shifts                         ...  NO (   0 nuclei)
Spin-rotation constants                 ...  NO (   0 nuclei)
Spin-spin couplings                     ...  NO (   0 nuclei,    0 pairs)

Choice of magnetic origin               ... GIAO
Position of magnetic origin             ...     0.000000     0.000000     0.000000

Properties with geometric perturbations:
SCF Hessian                             ...  NO
IR spectrum                             ...  NO
VCD spectrum                            ...  NO
X-ray spectroscopy properties:
SCF XES/XAS/RIXS spectra                ...  NO


-------------
DIPOLE MOMENT
-------------

Method             : SCF
Type of density    : Electron Density
Multiplicity       :   1
Irrep              :   0
Energy             :   -56.1038742084950641 Eh
Relativity type    : 
Basis              : AO
                                X                 Y                 Z
Electronic contribution:      0.000000000       0.000008771       0.234504716
Nuclear contribution   :     -0.000000000      -0.000011681      -0.875051178
                        -----------------------------------------
Total Dipole Moment    :     -0.000000000      -0.000002910      -0.640546462
                        -----------------------------------------
Magnitude (a.u.)       :      0.640546462
Magnitude (Debye)      :      1.628139716



--------------------
Rotational spectrum 
--------------------
 
Rotational constants in cm-1:             9.812883             9.812867             6.187662 
Rotational constants in MHz :        294182.823931        294182.365372        185501.426883 

Dipole components along the rotational axes: 
x,y,z [a.u.] :    -0.000007    -0.000000    -0.640546 
x,y,z [Debye]:    -0.000017    -0.000000    -1.628140 

 

Dipole moment calculation done in   0.0 sec 

Maximum memory used throughout the entire PROP-calculation: 4.8 MB

--------------------------------
SUGGESTED CITATIONS FOR THIS RUN
--------------------------------

Below you find a list of papers that are relevant to this ORCA run
We neither can nor want to force you to cite these papers, but we appreciate if you do
You receive ORCA, which is the product of decades of hard work by many enthusiastic individuals, for free
The only thing we kindly ask in return is that you cite our papers,
We deeply appreciate it, if you show your appreciation for ORCA by not just citing the generic ORCA reference.

Please note that relegating all ORCA citations to the supporting information does *not* help us.
SI sections are not indexed - citations you put there will not count into any citation statistics
But we need these citations in order to attract the funding resources that allow us to do what we are doing

Therefore, if you are a happy ORCA user, please consider citing a few of the papers listed below in the main body of your paper

In addition to the list printed below, the program has created the file NH3_Opt_Geom-LDA.bibtex that contains the list in bibtex format
You can import this file easily into all common literature databanks and citation aid programs


List of essential papers. We consider these as the minimum necessary citations

  1. Neese,F.
     Software update: the ORCA program system, version 5.0
     WIRES Comput. Molec. Sci., 2022 12(1)e1606
     doi.org/10.1002/wcms.1606

List of papers to cite with high priority. The work reported in these papers was absolutely
necessary for this run to complete.
Our perspective: the developers of density functionals and basis sets usually get cited in chemistry papers
Good! But without the algorithms to do something with them, the functionals or basis sets would not do anything.
Hence, in our opinion, the algorithm design and method developments papers are equally worthy of getting cited

  1. Neese,F.
     An improvement of the resolution of the identity approximation for the formation of the Coulomb matrix
     J. Comp. Chem., 2003 24(14)1740-1747
     doi.org/10.1002/jcc.10318
  2. Neese,F.
     The SHARK Integral Generation and Digestion System
     J. Comp. Chem., 2022  1-16
     doi.org/10.1002/jcc.26942

List of suggested additional citations. These are papers that are important in the 'surrounding' of 
of this run, or papers that preceded the highly important papers. If you like your results we are grateful for a citation.

  1. Neese,F.
     The ORCA program system
     WIRES Comput. Molec. Sci., 2012 2(1)73-78
     doi.org/10.1002/wcms.81
  2. Neese,F.
     Software update: the ORCA program system, version 4.0
     WIRES Comput. Molec. Sci., 2018 8(1)1-6
     doi.org/10.1002/wcms.1327
  3. Neese,F.; Wennmohs,F.; Becker,U.; Riplinger,C.
     The ORCA quantum chemistry program package
     J. Chem. Phys., 2020 152 Art. No. L224108
     doi.org/10.1063/5.0004608

List of optional additional citations

  1. Neese,F.
     Approximate second-order SCF convergence for spin unrestricted wavefunctions
     Chem. Phys. Lett., 2000 325(1-3)93-98
     doi.org/10.1016/s0009-2614(00)00662-x

Timings for individual modules:

Sum of individual times          ...        5.693 sec (=   0.095 min)
Startup calculation              ...        0.706 sec (=   0.012 min)  12.4 %
SCF iterations                   ...        3.983 sec (=   0.066 min)  70.0 %
Property calculations            ...        0.056 sec (=   0.001 min)   1.0 %
SCF Gradient evaluation          ...        0.913 sec (=   0.015 min)  16.0 %
Geometry relaxation              ...        0.035 sec (=   0.001 min)   0.6 %
                             ****ORCA TERMINATED NORMALLY****
TOTAL RUN TIME: 0 days 0 hours 0 minutes 5 seconds 999 msec
